<?xml version="1.0"?>

<!-- generated on 14/06/2010 04:01:23 p.m. by SUMO guisim Version 0.11.1
<configuration>

    <input>
        <net-file value="D:\SW\mapas\tl2\malaga-alameda\20\alameda.net.xml"/>
        <route-files value="D:\SW\mapas\tl2\malaga-alameda\20\alameda.500.rou.xml"/>
    </input>

    <output>
        <emissions-output value="D:\SW\mapas\tl2\malaga-alameda\20\output-emissions.xml"/>
        <tripinfo-output value="D:\SW\mapas\tl2\malaga-alameda\20\output-tripinfos.xml"/>
        <vehroute-output value="D:\SW\mapas\tl2\malaga-alameda\20\output-vehroutes.xml"/>
    </output>

    <time>
        <begin value="0"/>
        <end value="500"/>
    </time>

    <processing>
        <route-steps value="-1"/>
        <time-to-teleport value="-1"/>
    </processing>

    <report>
        <print-options value="false"/>
    </report>

    <random_number>
        <srand value="23423"/>
    </random_number>

    <gui_only>
        <gui-settings-file value=""/>
    </gui_only>

</configuration>
-->

<emissions>
    <emission-state time="0" loaded="500" emitted="185" running="185" waiting="315" ended="0" meanWaitingTime="0.00" meanTravelTime="-1.00" duration="0" />
    <emission-state time="1" loaded="500" emitted="208" running="208" waiting="292" ended="0" meanWaitingTime="0.11" meanTravelTime="-1.00" duration="26" />
    <emission-state time="2" loaded="500" emitted="212" running="212" waiting="288" ended="0" meanWaitingTime="0.15" meanTravelTime="-1.00" duration="13" />
    <emission-state time="3" loaded="500" emitted="292" running="292" waiting="208" ended="0" meanWaitingTime="0.93" meanTravelTime="-1.00" duration="12" />
    <emission-state time="4" loaded="500" emitted="307" running="307" waiting="193" ended="0" meanWaitingTime="1.08" meanTravelTime="-1.00" duration="13" />
    <emission-state time="5" loaded="500" emitted="313" running="313" waiting="187" ended="0" meanWaitingTime="1.15" meanTravelTime="-1.00" duration="11" />
    <emission-state time="6" loaded="500" emitted="334" running="334" waiting="166" ended="0" meanWaitingTime="1.46" meanTravelTime="-1.00" duration="12" />
    <emission-state time="7" loaded="500" emitted="342" running="341" waiting="158" ended="1" meanWaitingTime="1.59" meanTravelTime="1.00" duration="12" />
    <emission-state time="8" loaded="500" emitted="355" running="353" waiting="145" ended="2" meanWaitingTime="1.82" meanTravelTime="4.00" duration="13" />
    <emission-state time="9" loaded="500" emitted="365" running="363" waiting="135" ended="2" meanWaitingTime="2.02" meanTravelTime="4.00" duration="13" />
    <emission-state time="10" loaded="500" emitted="369" running="367" waiting="131" ended="2" meanWaitingTime="2.11" meanTravelTime="4.00" duration="12" />
    <emission-state time="11" loaded="500" emitted="374" running="372" waiting="126" ended="2" meanWaitingTime="2.22" meanTravelTime="4.00" duration="11" />
    <emission-state time="12" loaded="500" emitted="382" running="379" waiting="118" ended="3" meanWaitingTime="2.43" meanTravelTime="6.67" duration="8" />
    <emission-state time="13" loaded="500" emitted="384" running="381" waiting="116" ended="3" meanWaitingTime="2.48" meanTravelTime="6.67" duration="9" />
    <emission-state time="14" loaded="500" emitted="386" running="382" waiting="114" ended="4" meanWaitingTime="2.54" meanTravelTime="7.75" duration="7" />
    <emission-state time="15" loaded="500" emitted="390" running="386" waiting="110" ended="4" meanWaitingTime="2.67" meanTravelTime="7.75" duration="8" />
    <emission-state time="16" loaded="500" emitted="391" running="387" waiting="109" ended="4" meanWaitingTime="2.71" meanTravelTime="7.75" duration="9" />
    <emission-state time="17" loaded="500" emitted="394" running="390" waiting="106" ended="4" meanWaitingTime="2.81" meanTravelTime="7.75" duration="8" />
    <emission-state time="18" loaded="500" emitted="397" running="393" waiting="103" ended="4" meanWaitingTime="2.93" meanTravelTime="7.75" duration="8" />
    <emission-state time="19" loaded="500" emitted="398" running="392" waiting="102" ended="6" meanWaitingTime="2.97" meanTravelTime="11.50" duration="8" />
    <emission-state time="20" loaded="500" emitted="398" running="391" waiting="102" ended="7" meanWaitingTime="2.97" meanTravelTime="12.71" duration="8" />
    <emission-state time="21" loaded="500" emitted="400" running="393" waiting="100" ended="7" meanWaitingTime="3.06" meanTravelTime="12.71" duration="10" />
    <emission-state time="22" loaded="500" emitted="400" running="392" waiting="100" ended="8" meanWaitingTime="3.06" meanTravelTime="13.88" duration="10" />
    <emission-state time="23" loaded="500" emitted="400" running="391" waiting="100" ended="9" meanWaitingTime="3.06" meanTravelTime="14.89" duration="11" />
    <emission-state time="24" loaded="500" emitted="403" running="394" waiting="97" ended="9" meanWaitingTime="3.22" meanTravelTime="14.89" duration="10" />
    <emission-state time="25" loaded="500" emitted="403" running="394" waiting="97" ended="9" meanWaitingTime="3.22" meanTravelTime="14.89" duration="10" />
    <emission-state time="26" loaded="500" emitted="404" running="391" waiting="96" ended="13" meanWaitingTime="3.27" meanTravelTime="17.08" duration="10" />
    <emission-state time="27" loaded="500" emitted="404" running="391" waiting="96" ended="13" meanWaitingTime="3.27" meanTravelTime="17.08" duration="9" />
    <emission-state time="28" loaded="500" emitted="405" running="391" waiting="95" ended="14" meanWaitingTime="3.33" meanTravelTime="17.86" duration="9" />
    <emission-state time="29" loaded="500" emitted="405" running="391" waiting="95" ended="14" meanWaitingTime="3.33" meanTravelTime="17.86" duration="10" />
    <emission-state time="30" loaded="500" emitted="405" running="391" waiting="95" ended="14" meanWaitingTime="3.33" meanTravelTime="17.86" duration="8" />
    <emission-state time="31" loaded="500" emitted="405" running="390" waiting="95" ended="15" meanWaitingTime="3.33" meanTravelTime="18.53" duration="8" />
    <emission-state time="32" loaded="500" emitted="408" running="392" waiting="92" ended="16" meanWaitingTime="3.54" meanTravelTime="19.38" duration="8" />
    <emission-state time="33" loaded="500" emitted="411" running="394" waiting="89" ended="17" meanWaitingTime="3.76" meanTravelTime="20.18" duration="10" />
    <emission-state time="34" loaded="500" emitted="412" running="394" waiting="88" ended="18" meanWaitingTime="3.83" meanTravelTime="20.94" duration="16" />
    <emission-state time="35" loaded="500" emitted="416" running="397" waiting="84" ended="19" meanWaitingTime="4.13" meanTravelTime="21.63" duration="6" />
    <emission-state time="36" loaded="500" emitted="416" running="397" waiting="84" ended="19" meanWaitingTime="4.13" meanTravelTime="21.63" duration="6" />
    <emission-state time="37" loaded="500" emitted="416" running="396" waiting="84" ended="20" meanWaitingTime="4.13" meanTravelTime="22.40" duration="5" />
    <emission-state time="38" loaded="500" emitted="417" running="396" waiting="83" ended="21" meanWaitingTime="4.21" meanTravelTime="23.14" duration="5" />
    <emission-state time="39" loaded="500" emitted="419" running="398" waiting="81" ended="21" meanWaitingTime="4.38" meanTravelTime="23.14" duration="6" />
    <emission-state time="40" loaded="500" emitted="421" running="400" waiting="79" ended="21" meanWaitingTime="4.55" meanTravelTime="23.14" duration="6" />
    <emission-state time="41" loaded="500" emitted="422" running="400" waiting="78" ended="22" meanWaitingTime="4.64" meanTravelTime="23.45" duration="5" />
    <emission-state time="42" loaded="500" emitted="423" running="400" waiting="77" ended="23" meanWaitingTime="4.72" meanTravelTime="24.26" duration="8" />
    <emission-state time="43" loaded="500" emitted="424" running="401" waiting="76" ended="23" meanWaitingTime="4.81" meanTravelTime="24.26" duration="7" />
    <emission-state time="44" loaded="500" emitted="424" running="400" waiting="76" ended="24" meanWaitingTime="4.81" meanTravelTime="24.58" duration="7" />
    <emission-state time="45" loaded="500" emitted="426" running="402" waiting="74" ended="24" meanWaitingTime="5.00" meanTravelTime="24.58" duration="8" />
    <emission-state time="46" loaded="500" emitted="426" running="402" waiting="74" ended="24" meanWaitingTime="5.00" meanTravelTime="24.58" duration="7" />
    <emission-state time="47" loaded="500" emitted="426" running="402" waiting="74" ended="24" meanWaitingTime="5.00" meanTravelTime="24.58" duration="10" />
    <emission-state time="48" loaded="500" emitted="427" running="402" waiting="73" ended="25" meanWaitingTime="5.10" meanTravelTime="25.52" duration="7" />
    <emission-state time="49" loaded="500" emitted="427" running="402" waiting="73" ended="25" meanWaitingTime="5.10" meanTravelTime="25.52" duration="8" />
    <emission-state time="50" loaded="500" emitted="428" running="400" waiting="72" ended="28" meanWaitingTime="5.21" meanTravelTime="27.96" duration="8" />
    <emission-state time="51" loaded="500" emitted="429" running="400" waiting="71" ended="29" meanWaitingTime="5.31" meanTravelTime="28.76" duration="8" />
    <emission-state time="52" loaded="500" emitted="430" running="401" waiting="70" ended="29" meanWaitingTime="5.42" meanTravelTime="28.76" duration="7" />
    <emission-state time="53" loaded="500" emitted="430" running="400" waiting="70" ended="30" meanWaitingTime="5.42" meanTravelTime="29.57" duration="7" />
    <emission-state time="54" loaded="500" emitted="431" running="401" waiting="69" ended="30" meanWaitingTime="5.54" meanTravelTime="29.57" duration="8" />
    <emission-state time="55" loaded="500" emitted="432" running="401" waiting="68" ended="31" meanWaitingTime="5.65" meanTravelTime="30.29" duration="7" />
    <emission-state time="56" loaded="500" emitted="432" running="401" waiting="68" ended="31" meanWaitingTime="5.65" meanTravelTime="30.29" duration="7" />
    <emission-state time="57" loaded="500" emitted="432" running="400" waiting="68" ended="32" meanWaitingTime="5.65" meanTravelTime="31.13" duration="7" />
    <emission-state time="58" loaded="500" emitted="434" running="402" waiting="66" ended="32" meanWaitingTime="5.89" meanTravelTime="31.13" duration="7" />
    <emission-state time="59" loaded="500" emitted="434" running="400" waiting="66" ended="34" meanWaitingTime="5.89" meanTravelTime="32.59" duration="7" />
    <emission-state time="60" loaded="500" emitted="434" running="400" waiting="66" ended="34" meanWaitingTime="5.89" meanTravelTime="32.59" duration="7" />
    <emission-state time="61" loaded="500" emitted="437" running="401" waiting="63" ended="36" meanWaitingTime="6.27" meanTravelTime="33.58" duration="7" />
    <emission-state time="62" loaded="500" emitted="438" running="402" waiting="62" ended="36" meanWaitingTime="6.40" meanTravelTime="33.58" duration="7" />
    <emission-state time="63" loaded="500" emitted="438" running="401" waiting="62" ended="37" meanWaitingTime="6.40" meanTravelTime="34.38" duration="7" />
    <emission-state time="64" loaded="500" emitted="440" running="403" waiting="60" ended="37" meanWaitingTime="6.66" meanTravelTime="34.38" duration="7" />
    <emission-state time="65" loaded="500" emitted="440" running="403" waiting="60" ended="37" meanWaitingTime="6.66" meanTravelTime="34.38" duration="6" />
    <emission-state time="66" loaded="500" emitted="440" running="403" waiting="60" ended="37" meanWaitingTime="6.66" meanTravelTime="34.38" duration="6" />
    <emission-state time="67" loaded="500" emitted="440" running="403" waiting="60" ended="37" meanWaitingTime="6.66" meanTravelTime="34.38" duration="7" />
    <emission-state time="68" loaded="500" emitted="440" running="403" waiting="60" ended="37" meanWaitingTime="6.66" meanTravelTime="34.38" duration="7" />
    <emission-state time="69" loaded="500" emitted="441" running="403" waiting="59" ended="38" meanWaitingTime="6.80" meanTravelTime="35.13" duration="7" />
    <emission-state time="70" loaded="500" emitted="441" running="403" waiting="59" ended="38" meanWaitingTime="6.80" meanTravelTime="35.13" duration="7" />
    <emission-state time="71" loaded="500" emitted="441" running="402" waiting="59" ended="39" meanWaitingTime="6.80" meanTravelTime="36.05" duration="6" />
    <emission-state time="72" loaded="500" emitted="442" running="403" waiting="58" ended="39" meanWaitingTime="6.95" meanTravelTime="36.05" duration="7" />
    <emission-state time="73" loaded="500" emitted="443" running="404" waiting="57" ended="39" meanWaitingTime="7.10" meanTravelTime="36.05" duration="7" />
    <emission-state time="74" loaded="500" emitted="443" running="404" waiting="57" ended="39" meanWaitingTime="7.10" meanTravelTime="36.05" duration="6" />
    <emission-state time="75" loaded="500" emitted="445" running="405" waiting="55" ended="40" meanWaitingTime="7.40" meanTravelTime="37.03" duration="14" />
    <emission-state time="76" loaded="500" emitted="446" running="406" waiting="54" ended="40" meanWaitingTime="7.56" meanTravelTime="37.03" duration="14" />
    <emission-state time="77" loaded="500" emitted="446" running="406" waiting="54" ended="40" meanWaitingTime="7.56" meanTravelTime="37.03" duration="7" />
    <emission-state time="78" loaded="500" emitted="446" running="406" waiting="54" ended="40" meanWaitingTime="7.56" meanTravelTime="37.03" duration="6" />
    <emission-state time="79" loaded="500" emitted="446" running="406" waiting="54" ended="40" meanWaitingTime="7.56" meanTravelTime="37.03" duration="7" />
    <emission-state time="80" loaded="500" emitted="446" running="406" waiting="54" ended="40" meanWaitingTime="7.56" meanTravelTime="37.03" duration="7" />
    <emission-state time="81" loaded="500" emitted="446" running="406" waiting="54" ended="40" meanWaitingTime="7.56" meanTravelTime="37.03" duration="6" />
    <emission-state time="82" loaded="500" emitted="446" running="406" waiting="54" ended="40" meanWaitingTime="7.56" meanTravelTime="37.03" duration="7" />
    <emission-state time="83" loaded="500" emitted="446" running="406" waiting="54" ended="40" meanWaitingTime="7.56" meanTravelTime="37.03" duration="6" />
    <emission-state time="84" loaded="500" emitted="446" running="405" waiting="54" ended="41" meanWaitingTime="7.56" meanTravelTime="38.10" duration="6" />
    <emission-state time="85" loaded="500" emitted="446" running="405" waiting="54" ended="41" meanWaitingTime="7.56" meanTravelTime="38.10" duration="7" />
    <emission-state time="86" loaded="500" emitted="446" running="405" waiting="54" ended="41" meanWaitingTime="7.56" meanTravelTime="38.10" duration="6" />
    <emission-state time="87" loaded="500" emitted="447" running="405" waiting="53" ended="42" meanWaitingTime="7.73" meanTravelTime="39.17" duration="6" />
    <emission-state time="88" loaded="500" emitted="447" running="404" waiting="53" ended="43" meanWaitingTime="7.73" meanTravelTime="38.95" duration="6" />
    <emission-state time="89" loaded="500" emitted="447" running="404" waiting="53" ended="43" meanWaitingTime="7.73" meanTravelTime="38.95" duration="6" />
    <emission-state time="90" loaded="500" emitted="449" running="406" waiting="51" ended="43" meanWaitingTime="8.10" meanTravelTime="38.95" duration="6" />
    <emission-state time="91" loaded="500" emitted="449" running="404" waiting="51" ended="45" meanWaitingTime="8.10" meanTravelTime="41.18" duration="7" />
    <emission-state time="92" loaded="500" emitted="449" running="404" waiting="51" ended="45" meanWaitingTime="8.10" meanTravelTime="41.18" duration="7" />
    <emission-state time="93" loaded="500" emitted="450" running="403" waiting="50" ended="47" meanWaitingTime="8.29" meanTravelTime="43.38" duration="6" />
    <emission-state time="94" loaded="500" emitted="451" running="404" waiting="49" ended="47" meanWaitingTime="8.48" meanTravelTime="43.38" duration="7" />
    <emission-state time="95" loaded="500" emitted="451" running="404" waiting="49" ended="47" meanWaitingTime="8.48" meanTravelTime="43.38" duration="7" />
    <emission-state time="96" loaded="500" emitted="451" running="404" waiting="49" ended="47" meanWaitingTime="8.48" meanTravelTime="43.38" duration="7" />
    <emission-state time="97" loaded="500" emitted="451" running="404" waiting="49" ended="47" meanWaitingTime="8.48" meanTravelTime="43.38" duration="7" />
    <emission-state time="98" loaded="500" emitted="452" running="405" waiting="48" ended="47" meanWaitingTime="8.68" meanTravelTime="43.38" duration="7" />
    <emission-state time="99" loaded="500" emitted="453" running="406" waiting="47" ended="47" meanWaitingTime="8.88" meanTravelTime="43.38" duration="7" />
    <emission-state time="100" loaded="500" emitted="453" running="406" waiting="47" ended="47" meanWaitingTime="8.88" meanTravelTime="43.38" duration="7" />
    <emission-state time="101" loaded="500" emitted="453" running="406" waiting="47" ended="47" meanWaitingTime="8.88" meanTravelTime="43.38" duration="8" />
    <emission-state time="102" loaded="500" emitted="453" running="404" waiting="47" ended="49" meanWaitingTime="8.88" meanTravelTime="43.94" duration="7" />
    <emission-state time="103" loaded="500" emitted="454" running="405" waiting="46" ended="49" meanWaitingTime="9.08" meanTravelTime="43.94" duration="8" />
    <emission-state time="104" loaded="500" emitted="455" running="406" waiting="45" ended="49" meanWaitingTime="9.29" meanTravelTime="43.94" duration="7" />
    <emission-state time="105" loaded="500" emitted="456" running="407" waiting="44" ended="49" meanWaitingTime="9.50" meanTravelTime="43.94" duration="7" />
    <emission-state time="106" loaded="500" emitted="456" running="406" waiting="44" ended="50" meanWaitingTime="9.50" meanTravelTime="45.18" duration="7" />
    <emission-state time="107" loaded="500" emitted="456" running="406" waiting="44" ended="50" meanWaitingTime="9.50" meanTravelTime="45.18" duration="7" />
    <emission-state time="108" loaded="500" emitted="456" running="405" waiting="44" ended="51" meanWaitingTime="9.50" meanTravelTime="46.33" duration="7" />
    <emission-state time="109" loaded="500" emitted="457" running="406" waiting="43" ended="51" meanWaitingTime="9.72" meanTravelTime="46.33" duration="6" />
    <emission-state time="110" loaded="500" emitted="457" running="406" waiting="43" ended="51" meanWaitingTime="9.72" meanTravelTime="46.33" duration="6" />
    <emission-state time="111" loaded="500" emitted="457" running="406" waiting="43" ended="51" meanWaitingTime="9.72" meanTravelTime="46.33" duration="7" />
    <emission-state time="112" loaded="500" emitted="457" running="406" waiting="43" ended="51" meanWaitingTime="9.72" meanTravelTime="46.33" duration="7" />
    <emission-state time="113" loaded="500" emitted="457" running="406" waiting="43" ended="51" meanWaitingTime="9.72" meanTravelTime="46.33" duration="7" />
    <emission-state time="114" loaded="500" emitted="457" running="406" waiting="43" ended="51" meanWaitingTime="9.72" meanTravelTime="46.33" duration="6" />
    <emission-state time="115" loaded="500" emitted="457" running="406" waiting="43" ended="51" meanWaitingTime="9.72" meanTravelTime="46.33" duration="6" />
    <emission-state time="116" loaded="500" emitted="457" running="405" waiting="43" ended="52" meanWaitingTime="9.72" meanTravelTime="47.35" duration="7" />
    <emission-state time="117" loaded="500" emitted="457" running="405" waiting="43" ended="52" meanWaitingTime="9.72" meanTravelTime="47.35" duration="7" />
    <emission-state time="118" loaded="500" emitted="458" running="406" waiting="42" ended="52" meanWaitingTime="9.96" meanTravelTime="47.35" duration="6" />
    <emission-state time="119" loaded="500" emitted="458" running="406" waiting="42" ended="52" meanWaitingTime="9.96" meanTravelTime="47.35" duration="6" />
    <emission-state time="120" loaded="500" emitted="460" running="408" waiting="40" ended="52" meanWaitingTime="10.43" meanTravelTime="47.35" duration="7" />
    <emission-state time="121" loaded="500" emitted="461" running="408" waiting="39" ended="53" meanWaitingTime="10.67" meanTravelTime="48.57" duration="6" />
    <emission-state time="122" loaded="500" emitted="461" running="408" waiting="39" ended="53" meanWaitingTime="10.67" meanTravelTime="48.57" duration="12" />
    <emission-state time="123" loaded="500" emitted="461" running="408" waiting="39" ended="53" meanWaitingTime="10.67" meanTravelTime="48.57" duration="13" />
    <emission-state time="124" loaded="500" emitted="461" running="408" waiting="39" ended="53" meanWaitingTime="10.67" meanTravelTime="48.57" duration="14" />
    <emission-state time="125" loaded="500" emitted="462" running="407" waiting="38" ended="55" meanWaitingTime="10.92" meanTravelTime="49.87" duration="6" />
    <emission-state time="126" loaded="500" emitted="462" running="407" waiting="38" ended="55" meanWaitingTime="10.92" meanTravelTime="49.87" duration="6" />
    <emission-state time="127" loaded="500" emitted="462" running="406" waiting="38" ended="56" meanWaitingTime="10.92" meanTravelTime="51.04" duration="6" />
    <emission-state time="128" loaded="500" emitted="462" running="406" waiting="38" ended="56" meanWaitingTime="10.92" meanTravelTime="51.04" duration="6" />
    <emission-state time="129" loaded="500" emitted="462" running="406" waiting="38" ended="56" meanWaitingTime="10.92" meanTravelTime="51.04" duration="6" />
    <emission-state time="130" loaded="500" emitted="462" running="406" waiting="38" ended="56" meanWaitingTime="10.92" meanTravelTime="51.04" duration="6" />
    <emission-state time="131" loaded="500" emitted="462" running="406" waiting="38" ended="56" meanWaitingTime="10.92" meanTravelTime="51.04" duration="6" />
    <emission-state time="132" loaded="500" emitted="462" running="406" waiting="38" ended="56" meanWaitingTime="10.92" meanTravelTime="51.04" duration="7" />
    <emission-state time="133" loaded="500" emitted="462" running="406" waiting="38" ended="56" meanWaitingTime="10.92" meanTravelTime="51.04" duration="6" />
    <emission-state time="134" loaded="500" emitted="462" running="406" waiting="38" ended="56" meanWaitingTime="10.92" meanTravelTime="51.04" duration="6" />
    <emission-state time="135" loaded="500" emitted="462" running="406" waiting="38" ended="56" meanWaitingTime="10.92" meanTravelTime="51.04" duration="6" />
    <emission-state time="136" loaded="500" emitted="462" running="406" waiting="38" ended="56" meanWaitingTime="10.92" meanTravelTime="51.04" duration="6" />
    <emission-state time="137" loaded="500" emitted="462" running="406" waiting="38" ended="56" meanWaitingTime="10.92" meanTravelTime="51.04" duration="6" />
    <emission-state time="138" loaded="500" emitted="462" running="406" waiting="38" ended="56" meanWaitingTime="10.92" meanTravelTime="51.04" duration="6" />
    <emission-state time="139" loaded="500" emitted="462" running="405" waiting="38" ended="57" meanWaitingTime="10.92" meanTravelTime="52.56" duration="6" />
    <emission-state time="140" loaded="500" emitted="463" running="404" waiting="37" ended="59" meanWaitingTime="11.20" meanTravelTime="55.22" duration="6" />
    <emission-state time="141" loaded="500" emitted="463" running="404" waiting="37" ended="59" meanWaitingTime="11.20" meanTravelTime="55.22" duration="12" />
    <emission-state time="142" loaded="500" emitted="463" running="404" waiting="37" ended="59" meanWaitingTime="11.20" meanTravelTime="55.22" duration="11" />
    <emission-state time="143" loaded="500" emitted="463" running="404" waiting="37" ended="59" meanWaitingTime="11.20" meanTravelTime="55.22" duration="6" />
    <emission-state time="144" loaded="500" emitted="463" running="404" waiting="37" ended="59" meanWaitingTime="11.20" meanTravelTime="55.22" duration="6" />
    <emission-state time="145" loaded="500" emitted="463" running="404" waiting="37" ended="59" meanWaitingTime="11.20" meanTravelTime="55.22" duration="6" />
    <emission-state time="146" loaded="500" emitted="463" running="403" waiting="37" ended="60" meanWaitingTime="11.20" meanTravelTime="56.73" duration="6" />
    <emission-state time="147" loaded="500" emitted="463" running="403" waiting="37" ended="60" meanWaitingTime="11.20" meanTravelTime="56.73" duration="6" />
    <emission-state time="148" loaded="500" emitted="463" running="402" waiting="37" ended="61" meanWaitingTime="11.20" meanTravelTime="58.23" duration="6" />
    <emission-state time="149" loaded="500" emitted="463" running="402" waiting="37" ended="61" meanWaitingTime="11.20" meanTravelTime="58.23" duration="6" />
    <emission-state time="150" loaded="500" emitted="463" running="402" waiting="37" ended="61" meanWaitingTime="11.20" meanTravelTime="58.23" duration="6" />
    <emission-state time="151" loaded="500" emitted="464" running="403" waiting="36" ended="61" meanWaitingTime="11.50" meanTravelTime="58.23" duration="6" />
    <emission-state time="152" loaded="500" emitted="464" running="403" waiting="36" ended="61" meanWaitingTime="11.50" meanTravelTime="58.23" duration="6" />
    <emission-state time="153" loaded="500" emitted="464" running="403" waiting="36" ended="61" meanWaitingTime="11.50" meanTravelTime="58.23" duration="6" />
    <emission-state time="154" loaded="500" emitted="465" running="404" waiting="35" ended="61" meanWaitingTime="11.81" meanTravelTime="58.23" duration="6" />
    <emission-state time="155" loaded="500" emitted="466" running="404" waiting="34" ended="62" meanWaitingTime="12.12" meanTravelTime="59.60" duration="6" />
    <emission-state time="156" loaded="500" emitted="467" running="405" waiting="33" ended="62" meanWaitingTime="12.42" meanTravelTime="59.60" duration="11" />
    <emission-state time="157" loaded="500" emitted="467" running="405" waiting="33" ended="62" meanWaitingTime="12.42" meanTravelTime="59.60" duration="10" />
    <emission-state time="158" loaded="500" emitted="467" running="405" waiting="33" ended="62" meanWaitingTime="12.42" meanTravelTime="59.60" duration="8" />
    <emission-state time="159" loaded="500" emitted="467" running="405" waiting="33" ended="62" meanWaitingTime="12.42" meanTravelTime="59.60" duration="12" />
    <emission-state time="160" loaded="500" emitted="467" running="405" waiting="33" ended="62" meanWaitingTime="12.42" meanTravelTime="59.60" duration="4" />
    <emission-state time="161" loaded="500" emitted="467" running="405" waiting="33" ended="62" meanWaitingTime="12.42" meanTravelTime="59.60" duration="4" />
    <emission-state time="162" loaded="500" emitted="467" running="404" waiting="33" ended="63" meanWaitingTime="12.42" meanTravelTime="61.21" duration="4" />
    <emission-state time="163" loaded="500" emitted="467" running="404" waiting="33" ended="63" meanWaitingTime="12.42" meanTravelTime="61.21" duration="4" />
    <emission-state time="164" loaded="500" emitted="467" running="404" waiting="33" ended="63" meanWaitingTime="12.42" meanTravelTime="61.21" duration="11" />
    <emission-state time="165" loaded="500" emitted="467" running="403" waiting="33" ended="64" meanWaitingTime="12.42" meanTravelTime="62.80" duration="5" />
    <emission-state time="166" loaded="500" emitted="468" running="404" waiting="32" ended="64" meanWaitingTime="12.75" meanTravelTime="62.80" duration="6" />
    <emission-state time="167" loaded="500" emitted="469" running="404" waiting="31" ended="65" meanWaitingTime="13.08" meanTravelTime="64.40" duration="6" />
    <emission-state time="168" loaded="500" emitted="469" running="402" waiting="31" ended="67" meanWaitingTime="13.08" meanTravelTime="67.39" duration="6" />
    <emission-state time="169" loaded="500" emitted="469" running="402" waiting="31" ended="67" meanWaitingTime="13.08" meanTravelTime="67.39" duration="6" />
    <emission-state time="170" loaded="500" emitted="470" running="402" waiting="30" ended="68" meanWaitingTime="13.41" meanTravelTime="68.87" duration="6" />
    <emission-state time="171" loaded="500" emitted="470" running="402" waiting="30" ended="68" meanWaitingTime="13.41" meanTravelTime="68.87" duration="6" />
    <emission-state time="172" loaded="500" emitted="470" running="401" waiting="30" ended="69" meanWaitingTime="13.41" meanTravelTime="70.29" duration="5" />
    <emission-state time="173" loaded="500" emitted="471" running="402" waiting="29" ended="69" meanWaitingTime="13.75" meanTravelTime="70.29" duration="5" />
    <emission-state time="174" loaded="500" emitted="471" running="402" waiting="29" ended="69" meanWaitingTime="13.75" meanTravelTime="70.29" duration="12" />
    <emission-state time="175" loaded="500" emitted="471" running="402" waiting="29" ended="69" meanWaitingTime="13.75" meanTravelTime="70.29" duration="6" />
    <emission-state time="176" loaded="500" emitted="471" running="402" waiting="29" ended="69" meanWaitingTime="13.75" meanTravelTime="70.29" duration="6" />
    <emission-state time="177" loaded="500" emitted="471" running="401" waiting="29" ended="70" meanWaitingTime="13.75" meanTravelTime="71.81" duration="6" />
    <emission-state time="178" loaded="500" emitted="471" running="401" waiting="29" ended="70" meanWaitingTime="13.75" meanTravelTime="71.81" duration="7" />
    <emission-state time="179" loaded="500" emitted="471" running="401" waiting="29" ended="70" meanWaitingTime="13.75" meanTravelTime="71.81" duration="9" />
    <emission-state time="180" loaded="500" emitted="471" running="401" waiting="29" ended="70" meanWaitingTime="13.75" meanTravelTime="71.81" duration="8" />
    <emission-state time="181" loaded="500" emitted="471" running="401" waiting="29" ended="70" meanWaitingTime="13.75" meanTravelTime="71.81" duration="4" />
    <emission-state time="182" loaded="500" emitted="471" running="401" waiting="29" ended="70" meanWaitingTime="13.75" meanTravelTime="71.81" duration="4" />