<?xml version="1.0"?>

<!-- generated on 14/06/2010 04:01:23 p.m. by SUMO guisim Version 0.11.1
<configuration>

    <input>
        <net-file value="D:\SW\mapas\tl2\malaga-alameda\20\alameda.net.xml"/>
        <route-files value="D:\SW\mapas\tl2\malaga-alameda\20\alameda.500.rou.xml"/>
    </input>

    <output>
        <emissions-output value="D:\SW\mapas\tl2\malaga-alameda\20\output-emissions.xml"/>
        <tripinfo-output value="D:\SW\mapas\tl2\malaga-alameda\20\output-tripinfos.xml"/>
        <vehroute-output value="D:\SW\mapas\tl2\malaga-alameda\20\output-vehroutes.xml"/>
    </output>

    <time>
        <begin value="0"/>
        <end value="500"/>
    </time>

    <processing>
        <route-steps value="-1"/>
        <time-to-teleport value="-1"/>
    </processing>

    <report>
        <print-options value="false"/>
    </report>

    <random_number>
        <srand value="23423"/>
    </random_number>

    <gui_only>
        <gui-settings-file value=""/>
    </gui_only>

</configuration>
-->

<tripinfos>
    <tripinfo id="Rand506" depart="6" departLane="35900338#2_0" departPos="0.00" departSpeed="0.00" departDelay="6" arrival="7" arrivalLane="35900338#2_0" arrivalPos="1.93" arrivalSpeed="1.93" duration="1" routeLength="1.93" waitSteps="0" rerouteNo="0" devices="" vtype="DEFAULT_VEHTYPE" vaporized=""></tripinfo>
    <tripinfo id="Rand400" depart="1" departLane="35903166#0_0" departPos="0.00" departSpeed="0.00" departDelay="1" arrival="8" arrivalLane="35903166#1_0" arrivalPos="5.92" arrivalSpeed="8.34" duration="7" routeLength="29.16" waitSteps="0" rerouteNo="0" devices="" vtype="DEFAULT_VEHTYPE" vaporized=""></tripinfo>
    <tripinfo id="Rand113" depart="0" departLane="35901912#1_0" departPos="0.00" departSpeed="0.00" departDelay="0" arrival="12" arrivalLane="-35901912#0_0" arrivalPos="4.01" arrivalSpeed="6.23" duration="12" routeLength="30.95" waitSteps="0" rerouteNo="0" devices="" vtype="DEFAULT_VEHTYPE" vaporized=""></tripinfo>
    <tripinfo id="Rand304" depart="3" departLane="-43512899_0" departPos="0.00" departSpeed="0.00" departDelay="3" arrival="14" arrivalLane="43512899_0" arrivalPos="6.01" arrivalSpeed="7.76" duration="11" routeLength="65.68" waitSteps="0" rerouteNo="0" devices="" vtype="DEFAULT_VEHTYPE" vaporized=""></tripinfo>
    <tripinfo id="Rand348" depart="0" departLane="-30098184#4_0" departPos="0.00" departSpeed="0.00" departDelay="0" arrival="19" arrivalLane="-30098184#3_0" arrivalPos="0.08" arrivalSpeed="5.02" duration="19" routeLength="24.37" waitSteps="8" rerouteNo="0" devices="" vtype="DEFAULT_VEHTYPE" vaporized=""></tripinfo>
    <tripinfo id="Rand181" depart="0" departLane="61334631_0" departPos="0.00" departSpeed="0.00" departDelay="0" arrival="19" arrivalLane="27131168#2_0" arrivalPos="1.20" arrivalSpeed="8.49" duration="19" routeLength="70.19" waitSteps="0" rerouteNo="0" devices="" vtype="DEFAULT_VEHTYPE" vaporized=""></tripinfo>
    <tripinfo id="Rand245" depart="0" departLane="27131168#4_0" departPos="0.00" departSpeed="0.00" departDelay="0" arrival="20" arrivalLane="61335135#1_0" arrivalPos="3.66" arrivalSpeed="6.93" duration="20" routeLength="85.83" waitSteps="0" rerouteNo="0" devices="" vtype="DEFAULT_VEHTYPE" vaporized=""></tripinfo>
    <tripinfo id="Rand2" depart="0" departLane="35902125#3_0" departPos="0.00" departSpeed="0.00" departDelay="0" arrival="22" arrivalLane="30098185#2_0" arrivalPos="0.98" arrivalSpeed="3.66" duration="22" routeLength="23.74" waitSteps="11" rerouteNo="0" devices="" vtype="DEFAULT_VEHTYPE" vaporized=""></tripinfo>
    <tripinfo id="Rand301" depart="0" departLane="-35773427#6_0" departPos="0.00" departSpeed="0.00" departDelay="0" arrival="23" arrivalLane="35901888#2_0" arrivalPos="0.15" arrivalSpeed="6.42" duration="23" routeLength="164.60" waitSteps="0" rerouteNo="0" devices="" vtype="DEFAULT_VEHTYPE" vaporized=""></tripinfo>
    <tripinfo id="Rand133" depart="0" departLane="35901888#2_0" departPos="0.00" departSpeed="0.00" departDelay="0" arrival="26" arrivalLane="-27617819#0_0" arrivalPos="4.18" arrivalSpeed="6.50" duration="26" routeLength="150.00" waitSteps="0" rerouteNo="0" devices="" vtype="DEFAULT_VEHTYPE" vaporized=""></tripinfo>
    <tripinfo id="Rand146" depart="3" departLane="61279142#1_0" departPos="0.00" departSpeed="0.00" departDelay="3" arrival="26" arrivalLane="-61279142#1_0" arrivalPos="2.26" arrivalSpeed="4.88" duration="23" routeLength="66.53" waitSteps="6" rerouteNo="0" devices="" vtype="DEFAULT_VEHTYPE" vaporized=""></tripinfo>
    <tripinfo id="Rand68" depart="10" departLane="-35773427#6_0" departPos="0.00" departSpeed="0.00" departDelay="10" arrival="26" arrivalLane="35902564#2_0" arrivalPos="2.00" arrivalSpeed="6.32" duration="16" routeLength="78.94" waitSteps="0" rerouteNo="0" devices="" vtype="DEFAULT_VEHTYPE" vaporized=""></tripinfo>
    <tripinfo id="Rand149" depart="3" departLane="-30098185#2_0" departPos="0.00" departSpeed="0.00" departDelay="3" arrival="25" arrivalLane="30098185#2_0" arrivalPos="2.34" arrivalSpeed="4.65" duration="22" routeLength="228.70" waitSteps="5" rerouteNo="0" devices="" vtype="DEFAULT_VEHTYPE" vaporized=""></tripinfo>
    <tripinfo id="Rand442" depart="0" departLane="-30098185#3_0" departPos="0.00" departSpeed="0.00" departDelay="0" arrival="28" arrivalLane="-30098184#1_0" arrivalPos="5.52" arrivalSpeed="5.98" duration="28" routeLength="151.12" waitSteps="0" rerouteNo="0" devices="" vtype="DEFAULT_VEHTYPE" vaporized=""></tripinfo>
    <tripinfo id="Rand247" depart="3" departLane="-27617850#4_0" departPos="0.00" departSpeed="0.00" departDelay="3" arrival="31" arrivalLane="27617865#2_0" arrivalPos="6.01" arrivalSpeed="12.80" duration="28" routeLength="147.75" waitSteps="0" rerouteNo="0" devices="" vtype="DEFAULT_VEHTYPE" vaporized=""></tripinfo>
    <tripinfo id="Rand430" depart="0" departLane="-27617865#1_0" departPos="0.00" departSpeed="0.00" departDelay="0" arrival="32" arrivalLane="34474997#5_1" arrivalPos="3.69" arrivalSpeed="5.55" duration="32" routeLength="204.02" waitSteps="0" rerouteNo="0" devices="" vtype="DEFAULT_VEHTYPE" vaporized=""></tripinfo>
    <tripinfo id="Rand192" depart="0" departLane="35902651#1_0" departPos="0.00" departSpeed="0.00" departDelay="0" arrival="33" arrivalLane="35902125#4_0" arrivalPos="5.10" arrivalSpeed="7.29" duration="33" routeLength="169.17" waitSteps="1" rerouteNo="0" devices="" vtype="DEFAULT_VEHTYPE" vaporized=""></tripinfo>
    <tripinfo id="Rand378" depart="0" departLane="-61279142#0_0" departPos="0.00" departSpeed="0.00" departDelay="0" arrival="34" arrivalLane="61279128#1_0" arrivalPos="0.04" arrivalSpeed="7.57" duration="34" routeLength="166.05" waitSteps="1" rerouteNo="0" devices="" vtype="DEFAULT_VEHTYPE" vaporized=""></tripinfo>
    <tripinfo id="Rand460" depart="1" departLane="35902651#0+35902785#1_0" departPos="0.00" departSpeed="0.00" departDelay="1" arrival="35" arrivalLane="-61326131#6+43512942#0_0" arrivalPos="0.31" arrivalSpeed="7.19" duration="34" routeLength="395.03" waitSteps="0" rerouteNo="0" devices="" vtype="DEFAULT_VEHTYPE" vaporized=""></tripinfo>
    <tripinfo id="Rand387" depart="0" departLane="27617850#3_0" departPos="0.00" departSpeed="0.00" departDelay="0" arrival="37" arrivalLane="-35773427#1_0" arrivalPos="0.75" arrivalSpeed="8.63" duration="37" routeLength="141.25" waitSteps="4" rerouteNo="0" devices="" vtype="DEFAULT_VEHTYPE" vaporized=""></tripinfo>
    <tripinfo id="Rand234" depart="0" departLane="35901883#0_0" departPos="0.00" departSpeed="0.00" departDelay="0" arrival="38" arrivalLane="30098184#3_0" arrivalPos="7.21" arrivalSpeed="8.66" duration="38" routeLength="163.45" waitSteps="8" rerouteNo="0" devices="" vtype="DEFAULT_VEHTYPE" vaporized=""></tripinfo>
    <tripinfo id="Rand86" depart="11" departLane="35902785#2_0" departPos="0.00" departSpeed="0.00" departDelay="11" arrival="41" arrivalLane="61326131#1_0" arrivalPos="5.22" arrivalSpeed="6.50" duration="30" routeLength="358.46" waitSteps="0" rerouteNo="0" devices="" vtype="DEFAULT_VEHTYPE" vaporized=""></tripinfo>
    <tripinfo id="Rand10" depart="0" departLane="34474997#3_0" departPos="0.00" departSpeed="0.00" departDelay="0" arrival="42" arrivalLane="35902125#4_0" arrivalPos="0.56" arrivalSpeed="6.34" duration="42" routeLength="129.01" waitSteps="16" rerouteNo="0" devices="" vtype="DEFAULT_VEHTYPE" vaporized=""></tripinfo>
    <tripinfo id="Rand167" depart="12" departLane="35901888#2_0" departPos="0.00" departSpeed="0.00" departDelay="12" arrival="44" arrivalLane="27617819#0_0" arrivalPos="1.28" arrivalSpeed="4.04" duration="32" routeLength="165.97" waitSteps="0" rerouteNo="0" devices="" vtype="DEFAULT_VEHTYPE" vaporized=""></tripinfo>
    <tripinfo id="Rand252" depart="0" departLane="-35901912#1_0" departPos="0.00" departSpeed="0.00" departDelay="0" arrival="48" arrivalLane="-30098184#2_0" arrivalPos="3.64" arrivalSpeed="5.62" duration="48" routeLength="173.35" waitSteps="6" rerouteNo="0" devices="" vtype="DEFAULT_VEHTYPE" vaporized=""></tripinfo>
    <tripinfo id="Rand129" depart="0" departLane="-35773427#3_0" departPos="0.00" departSpeed="0.00" departDelay="0" arrival="50" arrivalLane="34474997#6_1" arrivalPos="2.86" arrivalSpeed="8.33" duration="50" routeLength="94.89" waitSteps="9" rerouteNo="0" devices="" vtype="DEFAULT_VEHTYPE" vaporized=""></tripinfo>
    <tripinfo id="Rand19" depart="1" departLane="34474997#5_0" departPos="0.00" departSpeed="0.00" departDelay="1" arrival="50" arrivalLane="23162032#7_0" arrivalPos="3.22" arrivalSpeed="5.99" duration="49" routeLength="152.22" waitSteps="6" rerouteNo="0" devices="" vtype="DEFAULT_VEHTYPE" vaporized=""></tripinfo>
    <tripinfo id="Rand265" depart="4" departLane="23162032#3_0" departPos="0.00" departSpeed="0.00" departDelay="4" arrival="50" arrivalLane="-30098184#1_0" arrivalPos="6.55" arrivalSpeed="8.64" duration="46" routeLength="259.67" waitSteps="0" rerouteNo="0" devices="" vtype="DEFAULT_VEHTYPE" vaporized=""></tripinfo>
    <tripinfo id="Rand156" depart="0" departLane="35903198#0_0" departPos="0.00" departSpeed="0.00" departDelay="0" arrival="51" arrivalLane="61279128#0_0" arrivalPos="2.67" arrivalSpeed="7.11" duration="51" routeLength="98.76" waitSteps="30" rerouteNo="0" devices="" vtype="DEFAULT_VEHTYPE" vaporized=""></tripinfo>
    <tripinfo id="Rand100" depart="0" departLane="30098198_0" departPos="0.00" departSpeed="0.00" departDelay="0" arrival="53" arrivalLane="-35903338#1_0" arrivalPos="6.17" arrivalSpeed="7.46" duration="53" routeLength="243.57" waitSteps="7" rerouteNo="0" devices="" vtype="DEFAULT_VEHTYPE" vaporized=""></tripinfo>
    <tripinfo id="Rand223" depart="3" departLane="35902125#3_0" departPos="0.00" departSpeed="0.00" departDelay="3" arrival="55" arrivalLane="30098184#3_0" arrivalPos="1.14" arrivalSpeed="7.09" duration="52" routeLength="112.12" waitSteps="17" rerouteNo="0" devices="" vtype="DEFAULT_VEHTYPE" vaporized=""></tripinfo>
    <tripinfo id="Rand501" depart="0" departLane="61424033#0_0" departPos="0.00" departSpeed="0.00" departDelay="0" arrival="57" arrivalLane="30098199#1_0" arrivalPos="5.74" arrivalSpeed="7.92" duration="57" routeLength="355.49" waitSteps="0" rerouteNo="0" devices="" vtype="DEFAULT_VEHTYPE" vaporized=""></tripinfo>
    <tripinfo id="Rand106" depart="0" departLane="-35773427#7_0" departPos="0.00" departSpeed="0.00" departDelay="0" arrival="59" arrivalLane="-27617819#4_0" arrivalPos="2.87" arrivalSpeed="8.30" duration="59" routeLength="293.77" waitSteps="9" rerouteNo="0" devices="" vtype="DEFAULT_VEHTYPE" vaporized=""></tripinfo>
    <tripinfo id="Rand491" depart="6" departLane="35901640#5_0" departPos="0.00" departSpeed="0.00" departDelay="6" arrival="59" arrivalLane="61326131#3_0" arrivalPos="4.56" arrivalSpeed="6.07" duration="53" routeLength="160.98" waitSteps="23" rerouteNo="0" devices="" vtype="DEFAULT_VEHTYPE" vaporized=""></tripinfo>
    <tripinfo id="Rand65" depart="8" departLane="35901640#1_0" departPos="0.00" departSpeed="0.00" departDelay="8" arrival="61" arrivalLane="35903288#1_0" arrivalPos="2.53" arrivalSpeed="6.28" duration="53" routeLength="230.01" waitSteps="0" rerouteNo="0" devices="" vtype="DEFAULT_VEHTYPE" vaporized=""></tripinfo>
    <tripinfo id="Rand433" depart="13" departLane="-27617819#3_0" departPos="0.00" departSpeed="0.00" departDelay="13" arrival="61" arrivalLane="30098185#3_0" arrivalPos="6.26" arrivalSpeed="8.17" duration="48" routeLength="193.53" waitSteps="11" rerouteNo="0" devices="" vtype="DEFAULT_VEHTYPE" vaporized=""></tripinfo>
    <tripinfo id="Rand147" depart="0" departLane="-35903198#0_0" departPos="0.00" departSpeed="0.00" departDelay="0" arrival="63" arrivalLane="30098199#3_0" arrivalPos="1.25" arrivalSpeed="4.41" duration="63" routeLength="23.31" waitSteps="52" rerouteNo="0" devices="" vtype="DEFAULT_VEHTYPE" vaporized=""></tripinfo>
    <tripinfo id="Rand235" depart="6" departLane="35900343#1_0" departPos="0.00" departSpeed="0.00" departDelay="6" arrival="69" arrivalLane="35902564#0_0" arrivalPos="3.02" arrivalSpeed="5.95" duration="63" routeLength="272.77" waitSteps="24" rerouteNo="0" devices="" vtype="DEFAULT_VEHTYPE" vaporized=""></tripinfo>
    <tripinfo id="Rand102" depart="0" departLane="27131168#1_0" departPos="0.00" departSpeed="0.00" departDelay="0" arrival="71" arrivalLane="61278965_0" arrivalPos="0.34" arrivalSpeed="1.07" duration="71" routeLength="71.09" waitSteps="47" rerouteNo="0" devices="" vtype="DEFAULT_VEHTYPE" vaporized=""></tripinfo>
    <tripinfo id="Rand297" depart="0" departLane="-61424033#1_0" departPos="0.00" departSpeed="0.00" departDelay="0" arrival="75" arrivalLane="35903198#1_0" arrivalPos="5.03" arrivalSpeed="7.24" duration="75" routeLength="190.42" waitSteps="28" rerouteNo="0" devices="" vtype="DEFAULT_VEHTYPE" vaporized=""></tripinfo>
    <tripinfo id="Rand511" depart="3" departLane="35900343#4_0" departPos="0.00" departSpeed="0.00" departDelay="3" arrival="84" arrivalLane="-43512942#1+61326131#5_1" arrivalPos="0.91" arrivalSpeed="7.16" duration="81" routeLength="132.62" waitSteps="52" rerouteNo="0" devices="" vtype="DEFAULT_VEHTYPE" vaporized=""></tripinfo>
    <tripinfo id="Rand38" depart="4" departLane="35901640#6_0" departPos="0.00" departSpeed="0.00" departDelay="4" arrival="87" arrivalLane="-61424033#0_0" arrivalPos="5.13" arrivalSpeed="7.82" duration="83" routeLength="63.68" waitSteps="47" rerouteNo="0" devices="" vtype="DEFAULT_VEHTYPE" vaporized=""></tripinfo>
    <tripinfo id="Rand403" depart="58" departLane="30098185#2_0" departPos="0.00" departSpeed="0.00" departDelay="58" arrival="88" arrivalLane="-30098185#2_0" arrivalPos="3.08" arrivalSpeed="5.34" duration="30" routeLength="56.94" waitSteps="6" rerouteNo="0" devices="" vtype="DEFAULT_VEHTYPE" vaporized=""></tripinfo>
    <tripinfo id="Rand18" depart="0" departLane="35902561_0" departPos="0.00" departSpeed="0.00" departDelay="0" arrival="91" arrivalLane="61326131#4_0" arrivalPos="3.86" arrivalSpeed="7.81" duration="91" routeLength="281.21" waitSteps="41" rerouteNo="0" devices="" vtype="DEFAULT_VEHTYPE" vaporized=""></tripinfo>
    <tripinfo id="Rand164" depart="4" departLane="-35773427#3_0" departPos="0.00" departSpeed="0.00" departDelay="4" arrival="91" arrivalLane="35901883#4_0" arrivalPos="4.21" arrivalSpeed="7.94" duration="87" routeLength="83.65" waitSteps="61" rerouteNo="0" devices="" vtype="DEFAULT_VEHTYPE" vaporized=""></tripinfo>
    <tripinfo id="Rand474" depart="0" departLane="61335135#0_0" departPos="0.00" departSpeed="0.00" departDelay="0" arrival="93" arrivalLane="30098199#6_0" arrivalPos="1.85" arrivalSpeed="4.22" duration="93" routeLength="61.89" waitSteps="47" rerouteNo="0" devices="" vtype="DEFAULT_VEHTYPE" vaporized=""></tripinfo>
    <tripinfo id="Rand349" depart="0" departLane="27617806_0" departPos="0.00" departSpeed="0.00" departDelay="0" arrival="93" arrivalLane="35903338#1_0" arrivalPos="0.22" arrivalSpeed="3.02" duration="93" routeLength="43.81" waitSteps="72" rerouteNo="0" devices="" vtype="DEFAULT_VEHTYPE" vaporized=""></tripinfo>
    <tripinfo id="Rand464" depart="15" departLane="30098184#1_0" departPos="0.00" departSpeed="0.00" departDelay="15" arrival="102" arrivalLane="-27617819#3_0" arrivalPos="3.94" arrivalSpeed="6.07" duration="87" routeLength="172.61" waitSteps="28" rerouteNo="0" devices="" vtype="DEFAULT_VEHTYPE" vaporized=""></tripinfo>
    <tripinfo id="Rand369" depart="75" departLane="35903198#0_0" departPos="0.00" departSpeed="0.00" departDelay="75" arrival="102" arrivalLane="35903198#1_0" arrivalPos="4.46" arrivalSpeed="7.71" duration="27" routeLength="26.52" waitSteps="17" rerouteNo="0" devices="" vtype="DEFAULT_VEHTYPE" vaporized=""></tripinfo>
    <tripinfo id="Rand453" depart="0" departLane="-61279128#0_0" departPos="0.00" departSpeed="0.00" departDelay="0" arrival="106" arrivalLane="35900161_0" arrivalPos="12.13" arrivalSpeed="20.95" duration="106" routeLength="276.89" waitSteps="48" rerouteNo="0" devices="" vtype="DEFAULT_VEHTYPE" vaporized=""></tripinfo>
    <tripinfo id="Rand161" depart="4" departLane="30098185#1_0" departPos="0.00" departSpeed="0.00" departDelay="4" arrival="108" arrivalLane="35901883#1_0" arrivalPos="1.72" arrivalSpeed="6.71" duration="104" routeLength="240.22" waitSteps="34" rerouteNo="0" devices="" vtype="DEFAULT_VEHTYPE" vaporized=""></tripinfo>
    <tripinfo id="Rand258" depart="17" departLane="30098184#4_0" departPos="0.00" departSpeed="0.00" departDelay="17" arrival="116" arrivalLane="34474997#6_1" arrivalPos="0.37" arrivalSpeed="6.14" duration="99" routeLength="174.89" waitSteps="53" rerouteNo="0" devices="" vtype="DEFAULT_VEHTYPE" vaporized=""></tripinfo>
    <tripinfo id="Rand97" depart="9" departLane="23162032#6_0" departPos="0.00" departSpeed="0.00" departDelay="9" arrival="121" arrivalLane="27617860_0" arrivalPos="5.07" arrivalSpeed="13.03" duration="112" routeLength="273.18" waitSteps="59" rerouteNo="0" devices="" vtype="DEFAULT_VEHTYPE" vaporized=""></tripinfo>
    <tripinfo id="Rand518" depart="38" departLane="35903338#1_0" departPos="0.00" departSpeed="0.00" departDelay="38" arrival="125" arrivalLane="35900343#2_0" arrivalPos="8.11" arrivalSpeed="8.46" duration="87" routeLength="101.13" waitSteps="32" rerouteNo="0" devices="" vtype="DEFAULT_VEHTYPE" vaporized=""></tripinfo>
    <tripinfo id="Rand308" depart="43" departLane="-35901912#1_0" departPos="0.00" departSpeed="0.00" departDelay="43" arrival="125" arrivalLane="23162032#3_0" arrivalPos="3.85" arrivalSpeed="6.32" duration="82" routeLength="30.79" waitSteps="59" rerouteNo="0" devices="" vtype="DEFAULT_VEHTYPE" vaporized=""></tripinfo>
    <tripinfo id="Rand445" depart="12" departLane="-61424033#1_0" departPos="0.00" departSpeed="0.00" departDelay="12" arrival="127" arrivalLane="35901640#4_0" arrivalPos="0.35" arrivalSpeed="3.31" duration="115" routeLength="54.90" waitSteps="90" rerouteNo="0" devices="" vtype="DEFAULT_VEHTYPE" vaporized=""></tripinfo>
    <tripinfo id="Rand246" depart="1" departLane="27131168#4_0" departPos="0.00" departSpeed="0.00" departDelay="1" arrival="139" arrivalLane="61279128#1_0" arrivalPos="0.92" arrivalSpeed="13.55" duration="138" routeLength="240.06" waitSteps="73" rerouteNo="0" devices="" vtype="DEFAULT_VEHTYPE" vaporized=""></tripinfo>
    <tripinfo id="Rand25" depart="6" departLane="35902651#1_0" departPos="0.00" departSpeed="0.00" departDelay="6" arrival="140" arrivalLane="27617850#4_0" arrivalPos="8.39" arrivalSpeed="9.44" duration="134" routeLength="127.29" waitSteps="95" rerouteNo="0" devices="" vtype="DEFAULT_VEHTYPE" vaporized=""></tripinfo>
    <tripinfo id="Rand214" depart="12" departLane="35900343#0_0" departPos="0.00" departSpeed="0.00" departDelay="12" arrival="140" arrivalLane="-61326131#2+23162032#0_0" arrivalPos="2.05" arrivalSpeed="9.49" duration="128" routeLength="521.70" waitSteps="43" rerouteNo="0" devices="" vtype="DEFAULT_VEHTYPE" vaporized=""></tripinfo>
    <tripinfo id="Rand103" depart="0" departLane="-30098185#1_0" departPos="0.00" departSpeed="0.00" departDelay="0" arrival="146" arrivalLane="-27617850#3_0" arrivalPos="0.19" arrivalSpeed="8.11" duration="146" routeLength="227.98" waitSteps="82" rerouteNo="0" devices="" vtype="DEFAULT_VEHTYPE" vaporized=""></tripinfo>
    <tripinfo id="Rand212" depart="0" departLane="35901826_0" departPos="0.00" departSpeed="0.00" departDelay="0" arrival="148" arrivalLane="27617828#1_0" arrivalPos="0.51" arrivalSpeed="0.65" duration="148" routeLength="208.37" waitSteps="104" rerouteNo="0" devices="" vtype="DEFAULT_VEHTYPE" vaporized=""></tripinfo>
    <tripinfo id="Rand337" depart="12" departLane="35902785#0_0" departPos="0.00" departSpeed="0.00" departDelay="12" arrival="155" arrivalLane="-30098184#5_0" arrivalPos="4.64" arrivalSpeed="9.02" duration="143" routeLength="395.77" waitSteps="63" rerouteNo="0" devices="" vtype="DEFAULT_VEHTYPE" vaporized=""></tripinfo>
    <tripinfo id="Rand211" depart="1" departLane="23161464#1_0" departPos="0.00" departSpeed="0.00" departDelay="1" arrival="162" arrivalLane="35901640#4_1" arrivalPos="1.66" arrivalSpeed="5.06" duration="161" routeLength="594.11" waitSteps="97" rerouteNo="0" devices="" vtype="DEFAULT_VEHTYPE" vaporized=""></tripinfo>
    <tripinfo id="Rand276" depart="2" departLane="43512899_0" departPos="0.00" departSpeed="0.00" departDelay="2" arrival="165" arrivalLane="30098199#3_0" arrivalPos="0.03" arrivalSpeed="3.81" duration="163" routeLength="148.63" waitSteps="88" rerouteNo="0" devices="" vtype="DEFAULT_VEHTYPE" vaporized=""></tripinfo>
    <tripinfo id="Rand259" depart="0" departLane="35773427#7_0" departPos="0.00" departSpeed="0.00" departDelay="0" arrival="167" arrivalLane="35901883#0_0" arrivalPos="1.02" arrivalSpeed="2.15" duration="167" routeLength="427.04" waitSteps="94" rerouteNo="0" devices="" vtype="DEFAULT_VEHTYPE" vaporized=""></tripinfo>
    <tripinfo id="Rand127" depart="0" departLane="35903338#0_0" departPos="0.00" departSpeed="0.00" departDelay="0" arrival="168" arrivalLane="-61326131#4_0" arrivalPos="6.58" arrivalSpeed="7.54" duration="168" routeLength="476.41" waitSteps="72" rerouteNo="0" devices="" vtype="DEFAULT_VEHTYPE" vaporized=""></tripinfo>
    <tripinfo id="Rand62" depart="7" departLane="27131168#1_0" departPos="0.00" departSpeed="0.00" departDelay="7" arrival="168" arrivalLane="61335135#2_0" arrivalPos="5.17" arrivalSpeed="7.08" duration="161" routeLength="140.28" waitSteps="82" rerouteNo="0" devices="" vtype="DEFAULT_VEHTYPE" vaporized=""></tripinfo>
    <tripinfo id="Rand208" depart="2" departLane="35902651#1_0" departPos="0.00" departSpeed="0.00" departDelay="2" arrival="170" arrivalLane="-61326131#4_0" arrivalPos="0.88" arrivalSpeed="6.78" duration="168" routeLength="290.11" waitSteps="93" rerouteNo="0" devices="" vtype="DEFAULT_VEHTYPE" vaporized=""></tripinfo>
    <tripinfo id="Rand355" depart="5" departLane="-61424033#0_0" departPos="0.00" departSpeed="0.00" departDelay="5" arrival="172" arrivalLane="30098199#4_0" arrivalPos="1.41" arrivalSpeed="3.91" duration="167" routeLength="740.07" waitSteps="37" rerouteNo="0" devices="" vtype="DEFAULT_VEHTYPE" vaporized=""></tripinfo>
    <tripinfo id="Rand239" depart="0" departLane="61279128#0_0" departPos="0.00" departSpeed="0.00" departDelay="0" arrival="177" arrivalLane="35903338#1_1" arrivalPos="1.09" arrivalSpeed="2.62" duration="177" routeLength="157.34" waitSteps="126" rerouteNo="0" devices="" vtype="DEFAULT_VEHTYPE" vaporized=""></tripinfo>
    <tripinfo id="Rand335" depart="52" departLane="-27617850#3_0" departPos="0.00" departSpeed="0.00" departDelay="52" arrival="183" arrivalLane="27617850#4_0" arrivalPos="2.75" arrivalSpeed="7.17" duration="131" routeLength="75.07" waitSteps="105" rerouteNo="0" devices="" vtype="DEFAULT_VEHTYPE" vaporized=""></tripinfo>
    <tripinfo id="Rand406" depart="6" departLane="61279142#1_0" departPos="0.00" departSpeed="0.00" departDelay="6" arrival="187" arrivalLane="-35903338#1_1" arrivalPos="0.05" arrivalSpeed="3.25" duration="181" routeLength="200.76" waitSteps="113" rerouteNo="0" devices="" vtype="DEFAULT_VEHTYPE" vaporized=""></tripinfo>
    <tripinfo id="Rand213" depart="3" departLane="35901826_0" departPos="0.00" departSpeed="0.00" departDelay="3" arrival="201" arrivalLane="35901640#4_0" arrivalPos="1.13" arrivalSpeed="3.86" duration="198" routeLength="163.48" waitSteps="151" rerouteNo="0" devices="" vtype="DEFAULT_VEHTYPE" vaporized=""></tripinfo>
    <tripinfo id="Rand172" depart="3" departLane="-27617806_0" departPos="0.00" departSpeed="0.00" departDelay="3" arrival="202" arrivalLane="-61279142#0_0" arrivalPos="4.82" arrivalSpeed="6.69" duration="199" routeLength="304.35" waitSteps="116" rerouteNo="0" devices="" vtype="DEFAULT_VEHTYPE" vaporized=""></tripinfo>
    <tripinfo id="Rand31" depart="0" departLane="-61334631_0" departPos="0.00" departSpeed="0.00" departDelay="0" arrival="213" arrivalLane="-35903198#0_0" arrivalPos="4.91" arrivalSpeed="8.19" duration="213" routeLength="155.22" waitSteps="163" rerouteNo="0" devices="" vtype="DEFAULT_VEHTYPE" vaporized=""></tripinfo>
    <tripinfo id="Rand117" depart="24" departLane="-30098185#1_0" departPos="0.00" departSpeed="0.00" departDelay="24" arrival="228" arrivalLane="30098184#6_0" arrivalPos="0.30" arrivalSpeed="3.78" duration="204" routeLength="228.09" waitSteps="130" rerouteNo="0" devices="" vtype="DEFAULT_VEHTYPE" vaporized=""></tripinfo>
    <tripinfo id="Rand517" depart="3" departLane="61335135#0_0" departPos="0.00" departSpeed="0.00" departDelay="3" arrival="245" arrivalLane="-30098184#2_0" arrivalPos="0.72" arrivalSpeed="1.35" duration="242" routeLength="324.86" waitSteps="154" rerouteNo="0" devices="" vtype="DEFAULT_VEHTYPE" vaporized=""></tripinfo>
    <tripinfo id="Rand121" depart="3" departLane="35902785#0_0" departPos="0.00" departSpeed="0.00" departDelay="3" arrival="264" arrivalLane="35773427#0_0" arrivalPos="6.46" arrivalSpeed="13.58" duration="261" routeLength="509.39" waitSteps="188" rerouteNo="0" devices="" vtype="DEFAULT_VEHTYPE" vaporized=""></tripinfo>
    <tripinfo id="Rand73" depart="0" departLane="35902033#0_0" departPos="0.00" departSpeed="0.00" departDelay="0" arrival="275" arrivalLane="-27617850#0_0" arrivalPos="8.63" arrivalSpeed="8.70" duration="275" routeLength="239.05" waitSteps="221" rerouteNo="0" devices="" vtype="DEFAULT_VEHTYPE" vaporized=""></tripinfo>
    <tripinfo id="Rand126" depart="0" departLane="23162032#2_0" departPos="0.00" departSpeed="0.00" departDelay="0" arrival="277" arrivalLane="27617850#1_0" arrivalPos="0.46" arrivalSpeed="6.17" duration="277" routeLength="417.45" waitSteps="189" rerouteNo="0" devices="" vtype="DEFAULT_VEHTYPE" vaporized=""></tripinfo>
    <tripinfo id="Rand465" depart="0" departLane="35901912#0_0" departPos="0.00" departSpeed="0.00" departDelay="0" arrival="281" arrivalLane="-35773427#0_0" arrivalPos="2.12" arrivalSpeed="5.32" duration="281" routeLength="388.13" waitSteps="184" rerouteNo="0" devices="" vtype="DEFAULT_VEHTYPE" vaporized=""></tripinfo>
    <tripinfo id="Rand140" depart="0" departLane="35901888#1_0" departPos="0.00" departSpeed="0.00" departDelay="0" arrival="282" arrivalLane="23162032#6_1" arrivalPos="4.61" arrivalSpeed="7.09" duration="282" routeLength="298.85" waitSteps="199" rerouteNo="0" devices="" vtype="DEFAULT_VEHTYPE" vaporized=""></tripinfo>
    <tripinfo id="Rand266" depart="0" departLane="35901640#0_0" departPos="0.00" departSpeed="0.00" departDelay="0" arrival="287" arrivalLane="35901833#0_1" arrivalPos="0.33" arrivalSpeed="1.30" duration="287" routeLength="83.07" waitSteps="221" rerouteNo="0" devices="" vtype="DEFAULT_VEHTYPE" vaporized=""></tripinfo>
    <tripinfo id="Rand456" depart="72" departLane="-27617850#3_0" departPos="0.00" departSpeed="0.00" departDelay="72" arrival="295" arrivalLane="-61424033#1_0" arrivalPos="6.34" arrivalSpeed="8.07" duration="223" routeLength="510.76" waitSteps="137" rerouteNo="0" devices="" vtype="DEFAULT_VEHTYPE" vaporized=""></tripinfo>
    <tripinfo id="Rand40" depart="0" departLane="-61326131#3_0" departPos="0.00" departSpeed="0.00" departDelay="0" arrival="321" arrivalLane="30098184#6_0" arrivalPos="0.63" arrivalSpeed="3.26" duration="321" routeLength="402.18" waitSteps="231" rerouteNo="0" devices="" vtype="DEFAULT_VEHTYPE" vaporized=""></tripinfo>
    <tripinfo id="Rand388" depart="0" departLane="61326131#1_0" departPos="0.00" departSpeed="0.00" departDelay="0" arrival="322" arrivalLane="-27617850#4_0" arrivalPos="8.96" arrivalSpeed="13.68" duration="322" routeLength="447.81" waitSteps="203" rerouteNo="0" devices="" vtype="DEFAULT_VEHTYPE" vaporized=""></tripinfo>
    <tripinfo id="Rand379" depart="6" departLane="-61326131#4_0" departPos="0.00" departSpeed="0.00" departDelay="6" arrival="329" arrivalLane="27617860_0" arrivalPos="5.10" arrivalSpeed="11.55" duration="323" routeLength="769.41" waitSteps="173" rerouteNo="0" devices="" vtype="DEFAULT_VEHTYPE" vaporized=""></tripinfo>
    <tripinfo id="Rand55" depart="0" departLane="27617819#1_0" departPos="0.00" departSpeed="0.00" departDelay="0" arrival="369" arrivalLane="-61424033#0_0" arrivalPos="5.12" arrivalSpeed="7.39" duration="369" routeLength="323.51" waitSteps="305" rerouteNo="0" devices="" vtype="DEFAULT_VEHTYPE" vaporized=""></tripinfo>
    <tripinfo id="Rand451" depart="0" departLane="-27617819#1_0" departPos="0.00" departSpeed="0.00" departDelay="0" arrival="380" arrivalLane="-61291538_0" arrivalPos="0.09" arrivalSpeed="3.42" duration="380" routeLength="396.67" waitSteps="296" rerouteNo="0" devices="" vtype="DEFAULT_VEHTYPE" vaporized=""></tripinfo>
</tripinfos>
