<?xml version="1.0" encoding="UTF-8"?>

<!-- generated on Sat Aug  9 15:16:20 2014 by SUMO sumo Version 0.18.0
<?xml version="1.0" encoding="UTF-8"?>

<configuration xmlns:xsi="http://www.w3.org/2001/XMLSchema-instance" xsi:noNamespaceSchemaLocation="http://sumo.sf.net/xsd/sumoConfiguration.xsd">

    <input>
        <net-file value="tl2/2-intersections/2/twoIntersections.net.xml"/>
        <route-files value="tl2/2-intersections/2/twoIntersections.500.rou.xml"/>
        <additional-files value="tl2/2-intersections/2/tlLogic.add.xml"/>
    </input>

    <output>
        <summary-output value="tl2/2-intersections/2/output-emissions.xml"/>
        <tripinfo-output value="tl2/2-intersections/2/output-tripinfos.xml"/>
        <vehroute-output value="tl2/2-intersections/2/output-vehroutes.xml"/>
        <save-state.prefix value="tl2/2-intersections/2/state"/>
    </output>

    <time>
        <begin value="0"/>
        <end value="1600"/>
    </time>

    <processing>
        <route-steps value="-1"/>
        <time-to-teleport value="-1"/>
    </processing>

    <random_number>
        <seed value="23423"/>
    </random_number>

</configuration>
-->

<tripinfos>
    <tripinfo id="1" depart="1.00" departLane="-110#1_0" departPos="5.10" departSpeed="0.00" departDelay="0.00" arrival="64.00" arrivalLane="-50_1" arrivalPos="947.60" arrivalSpeed="26.94" duration="63.00" routeLength="1278.99" waitSteps="0" rerouteNo="0" devices="vehroute_1 tripinfo_1" vType="DEFAULT_VEHTYPE" vaporized=""/>
    <tripinfo id="27" depart="28.00" departLane="--103#0_0" departPos="5.10" departSpeed="0.00" departDelay="1.00" arrival="84.00" arrivalLane="--103#0_0" arrivalPos="1322.78" arrivalSpeed="27.02" duration="56.00" routeLength="1317.68" waitSteps="0" rerouteNo="0" devices="vehroute_27 tripinfo_27" vType="DEFAULT_VEHTYPE" vaporized=""/>
    <tripinfo id="33" depart="33.00" departLane="--103#1_0" departPos="5.10" departSpeed="0.00" departDelay="0.00" arrival="87.00" arrivalLane="-110#1_1" arrivalPos="336.49" arrivalSpeed="26.75" duration="54.00" routeLength="1258.87" waitSteps="0" rerouteNo="0" devices="vehroute_33 tripinfo_33" vType="DEFAULT_VEHTYPE" vaporized=""/>
    <tripinfo id="30" depart="30.00" departLane="-51_0" departPos="5.10" departSpeed="0.00" departDelay="0.00" arrival="87.00" arrivalLane="-51_0" arrivalPos="1335.20" arrivalSpeed="27.56" duration="57.00" routeLength="1330.10" waitSteps="0" rerouteNo="0" devices="vehroute_30 tripinfo_30" vType="DEFAULT_VEHTYPE" vaporized=""/>
    <tripinfo id="0" depart="0.00" departLane="-103#1_0" departPos="5.10" departSpeed="0.00" departDelay="0.00" arrival="89.00" arrivalLane="-110#1_1" arrivalPos="336.49" arrivalSpeed="27.65" duration="89.00" routeLength="2186.35" waitSteps="0" rerouteNo="0" devices="vehroute_0 tripinfo_0" vType="DEFAULT_VEHTYPE" vaporized=""/>
    <tripinfo id="19" depart="21.00" departLane="--110#2_0" departPos="5.10" departSpeed="0.00" departDelay="2.00" arrival="92.00" arrivalLane="--110#2_0" arrivalPos="1296.84" arrivalSpeed="5.93" duration="71.00" routeLength="1291.74" waitSteps="8" rerouteNo="0" devices="vehroute_19 tripinfo_19" vType="DEFAULT_VEHTYPE" vaporized=""/>
    <tripinfo id="31" depart="31.00" departLane="--110#2_0" departPos="5.10" departSpeed="0.00" departDelay="0.00" arrival="95.00" arrivalLane="--110#2_0" arrivalPos="1296.84" arrivalSpeed="8.76" duration="64.00" routeLength="1291.74" waitSteps="0" rerouteNo="0" devices="vehroute_31 tripinfo_31" vType="DEFAULT_VEHTYPE" vaporized=""/>
    <tripinfo id="45" depart="45.00" departLane="--50_0" departPos="5.10" departSpeed="0.00" departDelay="0.00" arrival="129.00" arrivalLane="--110#1_0" arrivalPos="336.49" arrivalSpeed="8.45" duration="84.00" routeLength="1278.99" waitSteps="7" rerouteNo="0" devices="vehroute_45 tripinfo_45" vType="DEFAULT_VEHTYPE" vaporized=""/>
    <tripinfo id="21" depart="24.00" departLane="--110#2_0" departPos="5.10" departSpeed="0.00" departDelay="3.00" arrival="129.00" arrivalLane="--51_1" arrivalPos="1335.20" arrivalSpeed="26.77" duration="105.00" routeLength="2626.94" waitSteps="0" rerouteNo="0" devices="vehroute_21 tripinfo_21" vType="DEFAULT_VEHTYPE" vaporized=""/>
    <tripinfo id="73" depart="73.00" departLane="-51_0" departPos="5.10" departSpeed="0.00" departDelay="0.00" arrival="129.00" arrivalLane="-51_0" arrivalPos="1335.20" arrivalSpeed="27.19" duration="56.00" routeLength="1330.10" waitSteps="0" rerouteNo="0" devices="vehroute_73 tripinfo_73" vType="DEFAULT_VEHTYPE" vaporized=""/>
    <tripinfo id="11" depart="11.00" departLane="-51_0" departPos="5.10" departSpeed="0.00" departDelay="0.00" arrival="150.00" arrivalLane="-50_1" arrivalPos="947.60" arrivalSpeed="27.36" duration="139.00" routeLength="2277.70" waitSteps="35" rerouteNo="0" devices="vehroute_11 tripinfo_11" vType="DEFAULT_VEHTYPE" vaporized=""/>
    <tripinfo id="98" depart="98.00" departLane="-51_0" departPos="5.10" departSpeed="0.00" departDelay="0.00" arrival="154.00" arrivalLane="-51_0" arrivalPos="1335.20" arrivalSpeed="27.00" duration="56.00" routeLength="1330.10" waitSteps="0" rerouteNo="0" devices="vehroute_98 tripinfo_98" vType="DEFAULT_VEHTYPE" vaporized=""/>
    <tripinfo id="55" depart="55.00" departLane="-51_0" departPos="5.10" departSpeed="0.00" departDelay="0.00" arrival="158.00" arrivalLane="-110#2_0" arrivalPos="1296.84" arrivalSpeed="27.64" duration="103.00" routeLength="2626.94" waitSteps="0" rerouteNo="0" devices="vehroute_55 tripinfo_55" vType="DEFAULT_VEHTYPE" vaporized=""/>
    <tripinfo id="61" depart="62.00" departLane="--50_0" departPos="5.10" departSpeed="0.00" departDelay="1.00" arrival="159.00" arrivalLane="-110#2_1" arrivalPos="1296.84" arrivalSpeed="26.51" duration="97.00" routeLength="2239.34" waitSteps="0" rerouteNo="0" devices="vehroute_61 tripinfo_61" vType="DEFAULT_VEHTYPE" vaporized=""/>
    <tripinfo id="26" depart="26.00" departLane="--50_0" departPos="5.10" departSpeed="0.00" departDelay="0.00" arrival="164.00" arrivalLane="-103#1_0" arrivalPos="927.48" arrivalSpeed="27.44" duration="138.00" routeLength="2206.47" waitSteps="21" rerouteNo="0" devices="vehroute_26 tripinfo_26" vType="DEFAULT_VEHTYPE" vaporized=""/>
    <tripinfo id="66" depart="66.00" departLane="-110#0_0" departPos="5.10" departSpeed="0.00" departDelay="0.00" arrival="172.00" arrivalLane="-103#1_1" arrivalPos="927.48" arrivalSpeed="27.71" duration="106.00" routeLength="2101.03" waitSteps="6" rerouteNo="0" devices="vehroute_66 tripinfo_66" vType="DEFAULT_VEHTYPE" vaporized=""/>
    <tripinfo id="22" depart="22.00" departLane="-110#0_0" departPos="5.10" departSpeed="0.00" departDelay="0.00" arrival="178.00" arrivalLane="--103#0_0" arrivalPos="1322.78" arrivalSpeed="26.56" duration="156.00" routeLength="2496.33" waitSteps="43" rerouteNo="0" devices="vehroute_22 tripinfo_22" vType="DEFAULT_VEHTYPE" vaporized=""/>
    <tripinfo id="17" depart="17.00" departLane="--110#0_0" departPos="5.10" departSpeed="0.00" departDelay="0.00" arrival="180.00" arrivalLane="--103#0_0" arrivalPos="1322.78" arrivalSpeed="26.57" duration="163.00" routeLength="3674.98" waitSteps="7" rerouteNo="0" devices="vehroute_17 tripinfo_17" vType="DEFAULT_VEHTYPE" vaporized=""/>
    <tripinfo id="74" depart="74.00" departLane="-103#0_0" departPos="5.10" departSpeed="0.00" departDelay="0.00" arrival="181.00" arrivalLane="-103#0_0" arrivalPos="1322.78" arrivalSpeed="11.69" duration="107.00" routeLength="1317.68" waitSteps="38" rerouteNo="0" devices="vehroute_74 tripinfo_74" vType="DEFAULT_VEHTYPE" vaporized=""/>
    <tripinfo id="62" depart="62.00" departLane="-110#0_0" departPos="5.10" departSpeed="0.00" departDelay="0.00" arrival="194.00" arrivalLane="-110#1_1" arrivalPos="336.49" arrivalSpeed="7.66" duration="132.00" routeLength="1510.04" waitSteps="42" rerouteNo="0" devices="vehroute_62 tripinfo_62" vType="DEFAULT_VEHTYPE" vaporized=""/>
    <tripinfo id="32" depart="32.00" departLane="-103#0_0" departPos="5.10" departSpeed="0.00" departDelay="0.00" arrival="200.00" arrivalLane="-110#1_0" arrivalPos="336.49" arrivalSpeed="11.64" duration="168.00" routeLength="1654.17" waitSteps="74" rerouteNo="0" devices="vehroute_32 tripinfo_32" vType="DEFAULT_VEHTYPE" vaporized=""/>
    <tripinfo id="158" depart="160.00" departLane="--103#1_0" departPos="5.10" departSpeed="0.00" departDelay="2.00" arrival="201.00" arrivalLane="--103#1_0" arrivalPos="927.48" arrivalSpeed="27.17" duration="41.00" routeLength="922.38" waitSteps="0" rerouteNo="0" devices="vehroute_158 tripinfo_158" vType="DEFAULT_VEHTYPE" vaporized=""/>
    <tripinfo id="6" depart="6.00" departLane="-103#0_0" departPos="5.10" departSpeed="0.00" departDelay="0.00" arrival="207.00" arrivalLane="-103#1_0" arrivalPos="927.48" arrivalSpeed="26.99" duration="201.00" routeLength="2245.16" waitSteps="99" rerouteNo="0" devices="vehroute_6 tripinfo_6" vType="DEFAULT_VEHTYPE" vaporized=""/>
    <tripinfo id="4" depart="4.00" departLane="-50_0" departPos="5.10" departSpeed="0.00" departDelay="0.00" arrival="210.00" arrivalLane="--103#1_1" arrivalPos="927.48" arrivalSpeed="8.59" duration="206.00" routeLength="4081.55" waitSteps="10" rerouteNo="0" devices="vehroute_4 tripinfo_4" vType="DEFAULT_VEHTYPE" vaporized=""/>
    <tripinfo id="41" depart="41.00" departLane="--103#1_0" departPos="5.10" departSpeed="0.00" departDelay="0.00" arrival="217.00" arrivalLane="--110#0_0" arrivalPos="1178.65" arrivalSpeed="26.93" duration="176.00" routeLength="2101.03" waitSteps="78" rerouteNo="0" devices="vehroute_41 tripinfo_41" vType="DEFAULT_VEHTYPE" vaporized=""/>
    <tripinfo id="38" depart="38.00" departLane="--110#2_0" departPos="5.10" departSpeed="0.00" departDelay="0.00" arrival="226.00" arrivalLane="-50_0" arrivalPos="947.60" arrivalSpeed="27.62" duration="188.00" routeLength="2239.34" waitSteps="84" rerouteNo="0" devices="vehroute_38 tripinfo_38" vType="DEFAULT_VEHTYPE" vaporized=""/>
    <tripinfo id="34" depart="34.00" departLane="-110#2_0" departPos="5.10" departSpeed="0.00" departDelay="0.00" arrival="229.00" arrivalLane="-50_0" arrivalPos="947.60" arrivalSpeed="26.91" duration="195.00" routeLength="3536.18" waitSteps="45" rerouteNo="0" devices="vehroute_34 tripinfo_34" vType="DEFAULT_VEHTYPE" vaporized=""/>
    <tripinfo id="140" depart="140.00" departLane="--110#2_0" departPos="5.10" departSpeed="0.00" departDelay="0.00" arrival="231.00" arrivalLane="-50_0" arrivalPos="947.60" arrivalSpeed="26.73" duration="91.00" routeLength="2239.34" waitSteps="0" rerouteNo="0" devices="vehroute_140 tripinfo_140" vType="DEFAULT_VEHTYPE" vaporized=""/>
    <tripinfo id="7" depart="7.00" departLane="--110#1_0" departPos="5.10" departSpeed="0.00" departDelay="0.00" arrival="237.00" arrivalLane="-50_1" arrivalPos="947.60" arrivalSpeed="27.24" duration="230.00" routeLength="1615.48" waitSteps="131" rerouteNo="0" devices="vehroute_7 tripinfo_7" vType="DEFAULT_VEHTYPE" vaporized=""/>
    <tripinfo id="145" depart="147.00" departLane="--103#1_0" departPos="5.10" departSpeed="0.00" departDelay="2.00" arrival="237.00" arrivalLane="--103#0_0" arrivalPos="1322.78" arrivalSpeed="27.30" duration="90.00" routeLength="2245.16" waitSteps="0" rerouteNo="0" devices="vehroute_145 tripinfo_145" vType="DEFAULT_VEHTYPE" vaporized=""/>
    <tripinfo id="181" depart="188.00" departLane="--110#0_0" departPos="5.10" departSpeed="0.00" departDelay="7.00" arrival="239.00" arrivalLane="--110#0_0" arrivalPos="1178.65" arrivalSpeed="27.02" duration="51.00" routeLength="1173.55" waitSteps="0" rerouteNo="0" devices="vehroute_181 tripinfo_181" vType="DEFAULT_VEHTYPE" vaporized=""/>
    <tripinfo id="60" depart="168.00" departLane="-110#1_0" departPos="5.10" departSpeed="0.00" departDelay="108.00" arrival="240.00" arrivalLane="-50_1" arrivalPos="947.60" arrivalSpeed="26.69" duration="72.00" routeLength="1278.99" waitSteps="0" rerouteNo="0" devices="vehroute_60 tripinfo_60" vType="DEFAULT_VEHTYPE" vaporized=""/>
    <tripinfo id="24" depart="24.00" departLane="-110#1_0" departPos="5.10" departSpeed="0.00" departDelay="0.00" arrival="240.00" arrivalLane="-110#2_0" arrivalPos="1296.84" arrivalSpeed="27.10" duration="216.00" routeLength="1628.23" waitSteps="134" rerouteNo="0" devices="vehroute_24 tripinfo_24" vType="DEFAULT_VEHTYPE" vaporized=""/>
    <tripinfo id="10" depart="10.00" departLane="--103#0_0" departPos="5.10" departSpeed="0.00" departDelay="0.00" arrival="243.00" arrivalLane="-50_1" arrivalPos="947.60" arrivalSpeed="26.75" duration="233.00" routeLength="3924.55" waitSteps="51" rerouteNo="0" devices="vehroute_10 tripinfo_10" vType="DEFAULT_VEHTYPE" vaporized=""/>
    <tripinfo id="52" depart="52.00" departLane="--103#1_0" departPos="5.10" departSpeed="0.00" departDelay="0.00" arrival="245.00" arrivalLane="--51_0" arrivalPos="1335.20" arrivalSpeed="27.11" duration="193.00" routeLength="2594.07" waitSteps="75" rerouteNo="0" devices="vehroute_52 tripinfo_52" vType="DEFAULT_VEHTYPE" vaporized=""/>
    <tripinfo id="47" depart="47.00" departLane="--103#0_0" departPos="5.10" departSpeed="0.00" departDelay="0.00" arrival="247.00" arrivalLane="-50_1" arrivalPos="947.60" arrivalSpeed="27.05" duration="200.00" routeLength="3924.55" waitSteps="20" rerouteNo="0" devices="vehroute_47 tripinfo_47" vType="DEFAULT_VEHTYPE" vaporized=""/>
    <tripinfo id="2" depart="2.00" departLane="--103#0_0" departPos="5.10" departSpeed="0.00" departDelay="0.00" arrival="254.00" arrivalLane="--51_0" arrivalPos="1335.20" arrivalSpeed="27.50" duration="252.00" routeLength="4312.15" waitSteps="58" rerouteNo="0" devices="vehroute_2 tripinfo_2" vType="DEFAULT_VEHTYPE" vaporized=""/>
    <tripinfo id="37" depart="37.00" departLane="-103#1_0" departPos="5.10" departSpeed="0.00" departDelay="0.00" arrival="257.00" arrivalLane="-50_1" arrivalPos="947.60" arrivalSpeed="27.46" duration="220.00" routeLength="3133.95" waitSteps="74" rerouteNo="0" devices="vehroute_37 tripinfo_37" vType="DEFAULT_VEHTYPE" vaporized=""/>
    <tripinfo id="25" depart="25.00" departLane="--103#0_0" departPos="5.10" departSpeed="0.00" departDelay="0.00" arrival="257.00" arrivalLane="-110#2_1" arrivalPos="1296.84" arrivalSpeed="27.44" duration="232.00" routeLength="4273.79" waitSteps="35" rerouteNo="0" devices="vehroute_25 tripinfo_25" vType="DEFAULT_VEHTYPE" vaporized=""/>
    <tripinfo id="48" depart="50.00" departLane="--103#0_0" departPos="5.10" departSpeed="0.00" departDelay="2.00" arrival="259.00" arrivalLane="--51_0" arrivalPos="1335.20" arrivalSpeed="26.55" duration="209.00" routeLength="4312.15" waitSteps="19" rerouteNo="0" devices="vehroute_48 tripinfo_48" vType="DEFAULT_VEHTYPE" vaporized=""/>
    <tripinfo id="71" depart="193.00" departLane="-110#1_0" departPos="5.10" departSpeed="0.00" departDelay="122.00" arrival="260.00" arrivalLane="-110#2_0" arrivalPos="1296.84" arrivalSpeed="26.60" duration="67.00" routeLength="1628.23" waitSteps="0" rerouteNo="0" devices="vehroute_71 tripinfo_71" vType="DEFAULT_VEHTYPE" vaporized=""/>
    <tripinfo id="54" depart="54.00" departLane="--110#2_0" departPos="5.10" departSpeed="0.00" departDelay="0.00" arrival="269.00" arrivalLane="--51_1" arrivalPos="1335.20" arrivalSpeed="26.83" duration="215.00" routeLength="2626.94" waitSteps="94" rerouteNo="0" devices="vehroute_54 tripinfo_54" vType="DEFAULT_VEHTYPE" vaporized=""/>
    <tripinfo id="135" depart="135.00" departLane="-51_0" departPos="5.10" departSpeed="0.00" departDelay="0.00" arrival="275.00" arrivalLane="-51_0" arrivalPos="1335.20" arrivalSpeed="7.76" duration="140.00" routeLength="1330.10" waitSteps="74" rerouteNo="0" devices="vehroute_135 tripinfo_135" vType="DEFAULT_VEHTYPE" vaporized=""/>
    <tripinfo id="20" depart="20.00" departLane="-110#2_0" departPos="5.10" departSpeed="0.00" departDelay="0.00" arrival="276.00" arrivalLane="--51_1" arrivalPos="1335.20" arrivalSpeed="27.11" duration="256.00" routeLength="3923.78" waitSteps="76" rerouteNo="0" devices="vehroute_20 tripinfo_20" vType="DEFAULT_VEHTYPE" vaporized=""/>
    <tripinfo id="12" depart="12.00" departLane="--110#2_0" departPos="5.10" departSpeed="0.00" departDelay="0.00" arrival="278.00" arrivalLane="-51_1" arrivalPos="1335.20" arrivalSpeed="8.54" duration="266.00" routeLength="3962.14" waitSteps="100" rerouteNo="0" devices="vehroute_12 tripinfo_12" vType="DEFAULT_VEHTYPE" vaporized=""/>
    <tripinfo id="57" depart="59.00" departLane="--50_0" departPos="5.10" departSpeed="0.00" departDelay="2.00" arrival="280.00" arrivalLane="-51_1" arrivalPos="1335.20" arrivalSpeed="9.82" duration="221.00" routeLength="3612.90" waitSteps="67" rerouteNo="0" devices="vehroute_57 tripinfo_57" vType="DEFAULT_VEHTYPE" vaporized=""/>
    <tripinfo id="123" depart="123.00" departLane="--50_0" departPos="5.10" departSpeed="0.00" departDelay="0.00" arrival="280.00" arrivalLane="--50_0" arrivalPos="947.60" arrivalSpeed="8.25" duration="157.00" routeLength="942.50" waitSteps="103" rerouteNo="0" devices="vehroute_123 tripinfo_123" vType="DEFAULT_VEHTYPE" vaporized=""/>
    <tripinfo id="182" depart="182.00" departLane="--50_0" departPos="5.10" departSpeed="0.00" departDelay="0.00" arrival="289.00" arrivalLane="--50_0" arrivalPos="947.60" arrivalSpeed="15.67" duration="107.00" routeLength="942.50" waitSteps="51" rerouteNo="0" devices="vehroute_182 tripinfo_182" vType="DEFAULT_VEHTYPE" vaporized=""/>
    <tripinfo id="156" depart="156.00" departLane="-110#0_0" departPos="5.10" departSpeed="0.00" departDelay="0.00" arrival="296.00" arrivalLane="-110#0_0" arrivalPos="1178.65" arrivalSpeed="8.05" duration="140.00" routeLength="1173.55" waitSteps="79" rerouteNo="0" devices="vehroute_156 tripinfo_156" vType="DEFAULT_VEHTYPE" vaporized=""/>
    <tripinfo id="189" depart="189.00" departLane="-110#0_0" departPos="5.10" departSpeed="0.00" departDelay="0.00" arrival="299.00" arrivalLane="-110#0_0" arrivalPos="1178.65" arrivalSpeed="9.54" duration="110.00" routeLength="1173.55" waitSteps="47" rerouteNo="0" devices="vehroute_189 tripinfo_189" vType="DEFAULT_VEHTYPE" vaporized=""/>
    <tripinfo id="105" depart="107.00" departLane="-51_0" departPos="5.10" departSpeed="0.00" departDelay="2.00" arrival="314.00" arrivalLane="-50_1" arrivalPos="947.60" arrivalSpeed="26.99" duration="207.00" routeLength="2277.70" waitSteps="102" rerouteNo="0" devices="vehroute_105 tripinfo_105" vType="DEFAULT_VEHTYPE" vaporized=""/>
    <tripinfo id="50" depart="50.00" departLane="-110#1_0" departPos="5.10" departSpeed="0.00" departDelay="0.00" arrival="316.00" arrivalLane="-51_1" arrivalPos="1335.20" arrivalSpeed="9.76" duration="266.00" routeLength="3001.79" waitSteps="119" rerouteNo="0" devices="vehroute_50 tripinfo_50" vType="DEFAULT_VEHTYPE" vaporized=""/>
    <tripinfo id="15" depart="15.00" departLane="-110#0_0" departPos="5.10" departSpeed="0.00" departDelay="0.00" arrival="318.00" arrivalLane="-51_1" arrivalPos="1335.20" arrivalSpeed="11.75" duration="303.00" routeLength="4180.44" waitSteps="99" rerouteNo="0" devices="vehroute_15 tripinfo_15" vType="DEFAULT_VEHTYPE" vaporized=""/>
    <tripinfo id="42" depart="42.00" departLane="-110#0_0" departPos="5.10" departSpeed="0.00" departDelay="0.00" arrival="320.00" arrivalLane="-51_1" arrivalPos="1335.20" arrivalSpeed="13.49" duration="278.00" routeLength="4180.44" waitSteps="71" rerouteNo="0" devices="vehroute_42 tripinfo_42" vType="DEFAULT_VEHTYPE" vaporized=""/>
    <tripinfo id="14" depart="14.00" departLane="--110#0_0" departPos="5.10" departSpeed="0.00" departDelay="0.00" arrival="322.00" arrivalLane="-51_1" arrivalPos="1335.20" arrivalSpeed="15.29" duration="308.00" routeLength="5359.09" waitSteps="55" rerouteNo="0" devices="vehroute_14 tripinfo_14" vType="DEFAULT_VEHTYPE" vaporized=""/>
    <tripinfo id="35" depart="35.00" departLane="--103#0_0" departPos="5.10" departSpeed="0.00" departDelay="0.00" arrival="323.00" arrivalLane="-51_1" arrivalPos="1335.20" arrivalSpeed="14.42" duration="288.00" routeLength="5647.35" waitSteps="32" rerouteNo="0" devices="vehroute_35 tripinfo_35" vType="DEFAULT_VEHTYPE" vaporized=""/>
    <tripinfo id="103" depart="103.00" departLane="--50_0" departPos="5.10" departSpeed="0.00" departDelay="0.00" arrival="327.00" arrivalLane="--51_1" arrivalPos="1335.20" arrivalSpeed="26.80" duration="224.00" routeLength="2277.70" waitSteps="120" rerouteNo="0" devices="vehroute_103 tripinfo_103" vType="DEFAULT_VEHTYPE" vaporized=""/>
    <tripinfo id="58" depart="58.00" departLane="-51_0" departPos="5.10" departSpeed="0.00" departDelay="0.00" arrival="330.00" arrivalLane="-103#1_0" arrivalPos="927.48" arrivalSpeed="26.66" duration="272.00" routeLength="2594.07" waitSteps="143" rerouteNo="0" devices="vehroute_58 tripinfo_58" vType="DEFAULT_VEHTYPE" vaporized=""/>
    <tripinfo id="18" depart="18.00" departLane="--110#2_0" departPos="5.10" departSpeed="0.00" departDelay="0.00" arrival="332.00" arrivalLane="-103#1_0" arrivalPos="927.48" arrivalSpeed="27.09" duration="314.00" routeLength="2555.71" waitSteps="187" rerouteNo="0" devices="vehroute_18 tripinfo_18" vType="DEFAULT_VEHTYPE" vaporized=""/>
    <tripinfo id="101" depart="101.00" departLane="--103#1_0" departPos="5.10" departSpeed="0.00" departDelay="0.00" arrival="338.00" arrivalLane="-103#0_1" arrivalPos="1322.78" arrivalSpeed="6.76" duration="237.00" routeLength="3567.94" waitSteps="75" rerouteNo="0" devices="vehroute_101 tripinfo_101" vType="DEFAULT_VEHTYPE" vaporized=""/>
    <tripinfo id="68" depart="186.00" departLane="--51_0" departPos="5.10" departSpeed="0.00" departDelay="118.00" arrival="339.00" arrivalLane="-110#2_0" arrivalPos="1296.84" arrivalSpeed="26.75" duration="153.00" routeLength="3962.14" waitSteps="0" rerouteNo="0" devices="vehroute_68 tripinfo_68" vType="DEFAULT_VEHTYPE" vaporized=""/>
    <tripinfo id="8" depart="8.00" departLane="-110#1_0" departPos="5.10" departSpeed="0.00" departDelay="0.00" arrival="340.00" arrivalLane="--110#0_1" arrivalPos="1178.65" arrivalSpeed="27.17" duration="332.00" routeLength="1846.53" waitSteps="229" rerouteNo="0" devices="vehroute_8 tripinfo_8" vType="DEFAULT_VEHTYPE" vaporized=""/>
    <tripinfo id="16" depart="16.00" departLane="--50_0" departPos="5.10" departSpeed="0.00" departDelay="0.00" arrival="342.00" arrivalLane="--110#0_1" arrivalPos="1178.65" arrivalSpeed="26.68" duration="326.00" routeLength="2457.64" waitSteps="197" rerouteNo="0" devices="vehroute_16 tripinfo_16" vType="DEFAULT_VEHTYPE" vaporized=""/>
    <tripinfo id="159" depart="207.00" departLane="-50_0" departPos="5.10" departSpeed="0.00" departDelay="48.00" arrival="342.00" arrivalLane="--51_1" arrivalPos="1335.20" arrivalSpeed="27.30" duration="135.00" routeLength="3225.30" waitSteps="0" rerouteNo="0" devices="vehroute_159 tripinfo_159" vType="DEFAULT_VEHTYPE" vaporized=""/>
    <tripinfo id="225" depart="229.00" departLane="--103#1_0" departPos="5.10" departSpeed="0.00" departDelay="4.00" arrival="343.00" arrivalLane="--103#1_0" arrivalPos="927.48" arrivalSpeed="10.69" duration="114.00" routeLength="922.38" waitSteps="62" rerouteNo="0" devices="vehroute_225 tripinfo_225" vType="DEFAULT_VEHTYPE" vaporized=""/>
    <tripinfo id="56" depart="56.00" departLane="--50_0" departPos="5.10" departSpeed="0.00" departDelay="0.00" arrival="344.00" arrivalLane="--110#0_1" arrivalPos="1178.65" arrivalSpeed="26.73" duration="288.00" routeLength="2457.64" waitSteps="168" rerouteNo="0" devices="vehroute_56 tripinfo_56" vType="DEFAULT_VEHTYPE" vaporized=""/>
    <tripinfo id="176" depart="210.00" departLane="-50_0" departPos="5.10" departSpeed="0.00" departDelay="34.00" arrival="344.00" arrivalLane="--51_1" arrivalPos="1335.20" arrivalSpeed="27.06" duration="134.00" routeLength="3225.30" waitSteps="0" rerouteNo="0" devices="vehroute_176 tripinfo_176" vType="DEFAULT_VEHTYPE" vaporized=""/>
    <tripinfo id="43" depart="43.00" departLane="--110#0_0" departPos="5.10" departSpeed="0.00" departDelay="0.00" arrival="345.00" arrivalLane="--103#0_0" arrivalPos="1322.78" arrivalSpeed="27.58" duration="302.00" routeLength="3674.98" waitSteps="146" rerouteNo="0" devices="vehroute_43 tripinfo_43" vType="DEFAULT_VEHTYPE" vaporized=""/>
    <tripinfo id="207" depart="216.00" departLane="-50_0" departPos="5.10" departSpeed="0.00" departDelay="9.00" arrival="345.00" arrivalLane="--51_1" arrivalPos="1335.20" arrivalSpeed="26.83" duration="129.00" routeLength="3225.30" waitSteps="0" rerouteNo="0" devices="vehroute_207 tripinfo_207" vType="DEFAULT_VEHTYPE" vaporized=""/>
    <tripinfo id="136" depart="136.00" departLane="-110#0_0" departPos="5.10" departSpeed="0.00" departDelay="0.00" arrival="347.00" arrivalLane="--103#0_0" arrivalPos="1322.78" arrivalSpeed="27.70" duration="211.00" routeLength="2496.33" waitSteps="97" rerouteNo="0" devices="vehroute_136 tripinfo_136" vType="DEFAULT_VEHTYPE" vaporized=""/>
    <tripinfo id="248" depart="248.00" departLane="-51_0" departPos="5.10" departSpeed="0.00" departDelay="0.00" arrival="354.00" arrivalLane="-110#2_0" arrivalPos="1296.84" arrivalSpeed="27.32" duration="106.00" routeLength="2626.94" waitSteps="0" rerouteNo="0" devices="vehroute_248 tripinfo_248" vType="DEFAULT_VEHTYPE" vaporized=""/>
    <tripinfo id="321" depart="321.00" departLane="--103#1_0" departPos="5.10" departSpeed="0.00" departDelay="0.00" arrival="361.00" arrivalLane="--103#1_0" arrivalPos="927.48" arrivalSpeed="27.39" duration="40.00" routeLength="922.38" waitSteps="0" rerouteNo="0" devices="vehroute_321 tripinfo_321" vType="DEFAULT_VEHTYPE" vaporized=""/>
    <tripinfo id="152" depart="154.00" departLane="-103#0_0" departPos="5.10" departSpeed="0.00" departDelay="2.00" arrival="374.00" arrivalLane="-103#1_1" arrivalPos="927.48" arrivalSpeed="27.66" duration="220.00" routeLength="2245.16" waitSteps="117" rerouteNo="0" devices="vehroute_152 tripinfo_152" vType="DEFAULT_VEHTYPE" vaporized=""/>
    <tripinfo id="9" depart="9.00" departLane="-110#2_0" departPos="5.10" departSpeed="0.00" departDelay="0.00" arrival="381.00" arrivalLane="--103#1_1" arrivalPos="927.48" arrivalSpeed="8.27" duration="372.00" routeLength="4780.03" waitSteps="148" rerouteNo="0" devices="vehroute_9 tripinfo_9" vType="DEFAULT_VEHTYPE" vaporized=""/>
    <tripinfo id="271" depart="271.00" departLane="-103#0_0" departPos="5.10" departSpeed="0.00" departDelay="0.00" arrival="382.00" arrivalLane="-103#1_1" arrivalPos="927.48" arrivalSpeed="26.52" duration="111.00" routeLength="2245.16" waitSteps="5" rerouteNo="0" devices="vehroute_271 tripinfo_271" vType="DEFAULT_VEHTYPE" vaporized=""/>
    <tripinfo id="97" depart="97.00" departLane="--50_0" departPos="5.10" departSpeed="0.00" departDelay="0.00" arrival="383.00" arrivalLane="--103#1_1" arrivalPos="927.48" arrivalSpeed="9.46" duration="286.00" routeLength="3133.95" waitSteps="128" rerouteNo="0" devices="vehroute_97 tripinfo_97" vType="DEFAULT_VEHTYPE" vaporized=""/>
    <tripinfo id="206" depart="206.00" departLane="--103#1_0" departPos="5.10" departSpeed="0.00" departDelay="0.00" arrival="389.00" arrivalLane="--103#0_1" arrivalPos="1322.78" arrivalSpeed="26.72" duration="183.00" routeLength="2245.16" waitSteps="80" rerouteNo="0" devices="vehroute_206 tripinfo_206" vType="DEFAULT_VEHTYPE" vaporized=""/>
    <tripinfo id="174" depart="174.00" departLane="--103#1_0" departPos="5.10" departSpeed="0.00" departDelay="0.00" arrival="389.00" arrivalLane="--103#0_0" arrivalPos="1322.78" arrivalSpeed="26.77" duration="215.00" routeLength="2245.16" waitSteps="112" rerouteNo="0" devices="vehroute_174 tripinfo_174" vType="DEFAULT_VEHTYPE" vaporized=""/>
    <tripinfo id="246" depart="246.00" departLane="-103#0_0" departPos="5.10" departSpeed="0.00" departDelay="0.00" arrival="390.00" arrivalLane="--110#0_1" arrivalPos="1178.65" arrivalSpeed="26.62" duration="144.00" routeLength="2496.33" waitSteps="29" rerouteNo="0" devices="vehroute_246 tripinfo_246" vType="DEFAULT_VEHTYPE" vaporized=""/>
    <tripinfo id="29" depart="31.00" departLane="--110#0_0" departPos="5.10" departSpeed="0.00" departDelay="2.00" arrival="390.00" arrivalLane="-110#1_1" arrivalPos="336.49" arrivalSpeed="9.38" duration="359.00" routeLength="2688.69" waitSteps="200" rerouteNo="0" devices="vehroute_29 tripinfo_29" vType="DEFAULT_VEHTYPE" vaporized=""/>
    <tripinfo id="335" depart="335.00" departLane="--110#2_0" departPos="5.10" departSpeed="0.00" departDelay="0.00" arrival="390.00" arrivalLane="--110#2_0" arrivalPos="1296.84" arrivalSpeed="27.58" duration="55.00" routeLength="1291.74" waitSteps="0" rerouteNo="0" devices="vehroute_335 tripinfo_335" vType="DEFAULT_VEHTYPE" vaporized=""/>
    <tripinfo id="76" depart="76.00" departLane="-110#0_0" departPos="5.10" departSpeed="0.00" departDelay="0.00" arrival="392.00" arrivalLane="-110#1_1" arrivalPos="336.49" arrivalSpeed="10.64" duration="316.00" routeLength="1510.04" waitSteps="198" rerouteNo="0" devices="vehroute_76 tripinfo_76" vType="DEFAULT_VEHTYPE" vaporized=""/>
    <tripinfo id="198" depart="376.00" departLane="-110#1_0" departPos="5.10" departSpeed="0.00" departDelay="178.00" arrival="395.00" arrivalLane="-110#1_0" arrivalPos="336.49" arrivalSpeed="27.76" duration="19.00" routeLength="331.39" waitSteps="0" rerouteNo="0" devices="vehroute_198 tripinfo_198" vType="DEFAULT_VEHTYPE" vaporized=""/>
    <tripinfo id="309" depart="346.00" departLane="--110#0_0" departPos="5.10" departSpeed="0.00" departDelay="37.00" arrival="396.00" arrivalLane="--110#0_0" arrivalPos="1178.65" arrivalSpeed="27.73" duration="50.00" routeLength="1173.55" waitSteps="0" rerouteNo="0" devices="vehroute_309 tripinfo_309" vType="DEFAULT_VEHTYPE" vaporized=""/>
    <tripinfo id="308" depart="308.00" departLane="-103#0_0" departPos="5.10" departSpeed="0.00" departDelay="0.00" arrival="398.00" arrivalLane="-103#1_0" arrivalPos="927.48" arrivalSpeed="27.00" duration="90.00" routeLength="2245.16" waitSteps="0" rerouteNo="0" devices="vehroute_308 tripinfo_308" vType="DEFAULT_VEHTYPE" vaporized=""/>