<?xml version="1.0" encoding="UTF-8"?>

<!-- generated on Sat Aug  9 15:16:20 2014 by SUMO sumo Version 0.18.0
<?xml version="1.0" encoding="UTF-8"?>

<configuration xmlns:xsi="http://www.w3.org/2001/XMLSchema-instance" xsi:noNamespaceSchemaLocation="http://sumo.sf.net/xsd/sumoConfiguration.xsd">

    <input>
        <net-file value="tl2/2-intersections/2/twoIntersections.net.xml"/>
        <route-files value="tl2/2-intersections/2/twoIntersections.500.rou.xml"/>
        <additional-files value="tl2/2-intersections/2/tlLogic.add.xml"/>
    </input>

    <output>
        <summary-output value="tl2/2-intersections/2/output-emissions.xml"/>
        <tripinfo-output value="tl2/2-intersections/2/output-tripinfos.xml"/>
        <vehroute-output value="tl2/2-intersections/2/output-vehroutes.xml"/>
        <save-state.prefix value="tl2/2-intersections/2/state"/>
    </output>

    <time>
        <begin value="0"/>
        <end value="1600"/>
    </time>

    <processing>
        <route-steps value="-1"/>
        <time-to-teleport value="-1"/>
    </processing>

    <random_number>
        <seed value="23423"/>
    </random_number>

</configuration>
-->

<summary>
    <step time="0.00" loaded="500" emitted="1" running="1" waiting="0" ended="0" meanWaitingTime="0.00" meanTravelTime="-1.00" duration="0" />
    <step time="1.00" loaded="500" emitted="2" running="2" waiting="0" ended="0" meanWaitingTime="0.00" meanTravelTime="-1.00" duration="0" />
    <step time="2.00" loaded="500" emitted="3" running="3" waiting="0" ended="0" meanWaitingTime="0.00" meanTravelTime="-1.00" duration="0" />
    <step time="3.00" loaded="500" emitted="4" running="4" waiting="0" ended="0" meanWaitingTime="0.00" meanTravelTime="-1.00" duration="0" />
    <step time="4.00" loaded="500" emitted="5" running="5" waiting="0" ended="0" meanWaitingTime="0.00" meanTravelTime="-1.00" duration="0" />
    <step time="5.00" loaded="500" emitted="6" running="6" waiting="0" ended="0" meanWaitingTime="0.00" meanTravelTime="-1.00" duration="0" />
    <step time="6.00" loaded="500" emitted="7" running="7" waiting="0" ended="0" meanWaitingTime="0.00" meanTravelTime="-1.00" duration="0" />
    <step time="7.00" loaded="500" emitted="8" running="8" waiting="0" ended="0" meanWaitingTime="0.00" meanTravelTime="-1.00" duration="0" />
    <step time="8.00" loaded="500" emitted="9" running="9" waiting="0" ended="0" meanWaitingTime="0.00" meanTravelTime="-1.00" duration="0" />
    <step time="9.00" loaded="500" emitted="10" running="10" waiting="0" ended="0" meanWaitingTime="0.00" meanTravelTime="-1.00" duration="0" />
    <step time="10.00" loaded="500" emitted="11" running="11" waiting="0" ended="0" meanWaitingTime="0.00" meanTravelTime="-1.00" duration="0" />
    <step time="11.00" loaded="500" emitted="12" running="12" waiting="0" ended="0" meanWaitingTime="0.00" meanTravelTime="-1.00" duration="0" />
    <step time="12.00" loaded="500" emitted="13" running="13" waiting="0" ended="0" meanWaitingTime="0.00" meanTravelTime="-1.00" duration="0" />
    <step time="13.00" loaded="500" emitted="14" running="14" waiting="0" ended="0" meanWaitingTime="0.00" meanTravelTime="-1.00" duration="0" />
    <step time="14.00" loaded="500" emitted="15" running="15" waiting="0" ended="0" meanWaitingTime="0.00" meanTravelTime="-1.00" duration="0" />
    <step time="15.00" loaded="500" emitted="16" running="16" waiting="0" ended="0" meanWaitingTime="0.00" meanTravelTime="-1.00" duration="0" />
    <step time="16.00" loaded="500" emitted="17" running="17" waiting="0" ended="0" meanWaitingTime="0.00" meanTravelTime="-1.00" duration="0" />
    <step time="17.00" loaded="500" emitted="18" running="18" waiting="0" ended="0" meanWaitingTime="0.00" meanTravelTime="-1.00" duration="1" />
    <step time="18.00" loaded="500" emitted="19" running="19" waiting="0" ended="0" meanWaitingTime="0.00" meanTravelTime="-1.00" duration="0" />
    <step time="19.00" loaded="500" emitted="19" running="19" waiting="1" ended="0" meanWaitingTime="0.00" meanTravelTime="-1.00" duration="0" />
    <step time="20.00" loaded="500" emitted="20" running="20" waiting="1" ended="0" meanWaitingTime="0.00" meanTravelTime="-1.00" duration="0" />
    <step time="21.00" loaded="500" emitted="21" running="21" waiting="1" ended="0" meanWaitingTime="0.10" meanTravelTime="-1.00" duration="0" />
    <step time="22.00" loaded="500" emitted="22" running="22" waiting="1" ended="0" meanWaitingTime="0.09" meanTravelTime="-1.00" duration="0" />
    <step time="23.00" loaded="500" emitted="23" running="23" waiting="1" ended="0" meanWaitingTime="0.09" meanTravelTime="-1.00" duration="0" />
    <step time="24.00" loaded="500" emitted="25" running="25" waiting="0" ended="0" meanWaitingTime="0.20" meanTravelTime="-1.00" duration="0" />
    <step time="25.00" loaded="500" emitted="26" running="26" waiting="0" ended="0" meanWaitingTime="0.19" meanTravelTime="-1.00" duration="0" />
    <step time="26.00" loaded="500" emitted="27" running="27" waiting="0" ended="0" meanWaitingTime="0.19" meanTravelTime="-1.00" duration="0" />
    <step time="27.00" loaded="500" emitted="27" running="27" waiting="1" ended="0" meanWaitingTime="0.19" meanTravelTime="-1.00" duration="0" />
    <step time="28.00" loaded="500" emitted="29" running="29" waiting="0" ended="0" meanWaitingTime="0.21" meanTravelTime="-1.00" duration="0" />
    <step time="29.00" loaded="500" emitted="29" running="29" waiting="1" ended="0" meanWaitingTime="0.21" meanTravelTime="-1.00" duration="0" />
    <step time="30.00" loaded="500" emitted="30" running="30" waiting="1" ended="0" meanWaitingTime="0.20" meanTravelTime="-1.00" duration="0" />
    <step time="31.00" loaded="500" emitted="32" running="32" waiting="0" ended="0" meanWaitingTime="0.25" meanTravelTime="-1.00" duration="0" />
    <step time="32.00" loaded="500" emitted="33" running="33" waiting="0" ended="0" meanWaitingTime="0.24" meanTravelTime="-1.00" duration="0" />
    <step time="33.00" loaded="500" emitted="34" running="34" waiting="0" ended="0" meanWaitingTime="0.24" meanTravelTime="-1.00" duration="0" />
    <step time="34.00" loaded="500" emitted="35" running="35" waiting="0" ended="0" meanWaitingTime="0.23" meanTravelTime="-1.00" duration="0" />
    <step time="35.00" loaded="500" emitted="36" running="36" waiting="0" ended="0" meanWaitingTime="0.22" meanTravelTime="-1.00" duration="0" />
    <step time="36.00" loaded="500" emitted="37" running="37" waiting="0" ended="0" meanWaitingTime="0.22" meanTravelTime="-1.00" duration="0" />
    <step time="37.00" loaded="500" emitted="38" running="38" waiting="0" ended="0" meanWaitingTime="0.21" meanTravelTime="-1.00" duration="1" />
    <step time="38.00" loaded="500" emitted="39" running="39" waiting="0" ended="0" meanWaitingTime="0.21" meanTravelTime="-1.00" duration="0" />
    <step time="39.00" loaded="500" emitted="40" running="40" waiting="0" ended="0" meanWaitingTime="0.20" meanTravelTime="-1.00" duration="0" />
    <step time="40.00" loaded="500" emitted="40" running="40" waiting="1" ended="0" meanWaitingTime="0.20" meanTravelTime="-1.00" duration="0" />
    <step time="41.00" loaded="500" emitted="42" running="42" waiting="0" ended="0" meanWaitingTime="0.21" meanTravelTime="-1.00" duration="0" />
    <step time="42.00" loaded="500" emitted="43" running="43" waiting="0" ended="0" meanWaitingTime="0.21" meanTravelTime="-1.00" duration="0" />
    <step time="43.00" loaded="500" emitted="44" running="44" waiting="0" ended="0" meanWaitingTime="0.20" meanTravelTime="-1.00" duration="0" />
    <step time="44.00" loaded="500" emitted="45" running="45" waiting="0" ended="0" meanWaitingTime="0.20" meanTravelTime="-1.00" duration="0" />
    <step time="45.00" loaded="500" emitted="46" running="46" waiting="0" ended="0" meanWaitingTime="0.20" meanTravelTime="-1.00" duration="0" />
    <step time="46.00" loaded="500" emitted="47" running="47" waiting="0" ended="0" meanWaitingTime="0.19" meanTravelTime="-1.00" duration="0" />
    <step time="47.00" loaded="500" emitted="48" running="48" waiting="0" ended="0" meanWaitingTime="0.19" meanTravelTime="-1.00" duration="0" />
    <step time="48.00" loaded="500" emitted="48" running="48" waiting="1" ended="0" meanWaitingTime="0.19" meanTravelTime="-1.00" duration="0" />
    <step time="49.00" loaded="500" emitted="48" running="48" waiting="2" ended="0" meanWaitingTime="0.19" meanTravelTime="-1.00" duration="0" />
    <step time="50.00" loaded="500" emitted="50" running="50" waiting="1" ended="0" meanWaitingTime="0.22" meanTravelTime="-1.00" duration="0" />
    <step time="51.00" loaded="500" emitted="51" running="51" waiting="1" ended="0" meanWaitingTime="0.22" meanTravelTime="-1.00" duration="1" />
    <step time="52.00" loaded="500" emitted="52" running="52" waiting="1" ended="0" meanWaitingTime="0.21" meanTravelTime="-1.00" duration="0" />
    <step time="53.00" loaded="500" emitted="53" running="53" waiting="1" ended="0" meanWaitingTime="0.21" meanTravelTime="-1.00" duration="0" />
    <step time="54.00" loaded="500" emitted="54" running="54" waiting="1" ended="0" meanWaitingTime="0.20" meanTravelTime="-1.00" duration="0" />
    <step time="55.00" loaded="500" emitted="55" running="55" waiting="1" ended="0" meanWaitingTime="0.20" meanTravelTime="-1.00" duration="0" />
    <step time="56.00" loaded="500" emitted="56" running="56" waiting="1" ended="0" meanWaitingTime="0.20" meanTravelTime="-1.00" duration="0" />
    <step time="57.00" loaded="500" emitted="56" running="56" waiting="2" ended="0" meanWaitingTime="0.20" meanTravelTime="-1.00" duration="0" />
    <step time="58.00" loaded="500" emitted="57" running="57" waiting="2" ended="0" meanWaitingTime="0.19" meanTravelTime="-1.00" duration="0" />
    <step time="59.00" loaded="500" emitted="59" running="59" waiting="1" ended="0" meanWaitingTime="0.22" meanTravelTime="-1.00" duration="0" />
    <step time="60.00" loaded="500" emitted="59" running="59" waiting="2" ended="0" meanWaitingTime="0.22" meanTravelTime="-1.00" duration="0" />
    <step time="61.00" loaded="500" emitted="59" running="59" waiting="3" ended="0" meanWaitingTime="0.22" meanTravelTime="-1.00" duration="0" />
    <step time="62.00" loaded="500" emitted="61" running="61" waiting="2" ended="0" meanWaitingTime="0.23" meanTravelTime="-1.00" duration="1" />
    <step time="63.00" loaded="500" emitted="61" running="61" waiting="3" ended="0" meanWaitingTime="0.23" meanTravelTime="-1.00" duration="0" />
    <step time="64.00" loaded="500" emitted="61" running="60" waiting="4" ended="1" meanWaitingTime="0.23" meanTravelTime="63.00" duration="0" />
    <step time="65.00" loaded="500" emitted="63" running="62" waiting="3" ended="1" meanWaitingTime="0.25" meanTravelTime="63.00" duration="0" />
    <step time="66.00" loaded="500" emitted="64" running="63" waiting="3" ended="1" meanWaitingTime="0.25" meanTravelTime="63.00" duration="0" />
    <step time="67.00" loaded="500" emitted="64" running="63" waiting="4" ended="1" meanWaitingTime="0.25" meanTravelTime="63.00" duration="0" />
    <step time="68.00" loaded="500" emitted="64" running="63" waiting="5" ended="1" meanWaitingTime="0.25" meanTravelTime="63.00" duration="0" />
    <step time="69.00" loaded="500" emitted="65" running="64" waiting="5" ended="1" meanWaitingTime="0.25" meanTravelTime="63.00" duration="0" />
    <step time="70.00" loaded="500" emitted="66" running="65" waiting="5" ended="1" meanWaitingTime="0.24" meanTravelTime="63.00" duration="0" />
    <step time="71.00" loaded="500" emitted="66" running="65" waiting="6" ended="1" meanWaitingTime="0.24" meanTravelTime="63.00" duration="1" />
    <step time="72.00" loaded="500" emitted="66" running="65" waiting="7" ended="1" meanWaitingTime="0.24" meanTravelTime="63.00" duration="0" />
    <step time="73.00" loaded="500" emitted="67" running="66" waiting="7" ended="1" meanWaitingTime="0.24" meanTravelTime="63.00" duration="0" />
    <step time="74.00" loaded="500" emitted="68" running="67" waiting="7" ended="1" meanWaitingTime="0.24" meanTravelTime="63.00" duration="0" />
    <step time="75.00" loaded="500" emitted="69" running="68" waiting="7" ended="1" meanWaitingTime="0.23" meanTravelTime="63.00" duration="0" />
    <step time="76.00" loaded="500" emitted="70" running="69" waiting="7" ended="1" meanWaitingTime="0.23" meanTravelTime="63.00" duration="0" />
    <step time="77.00" loaded="500" emitted="70" running="69" waiting="8" ended="1" meanWaitingTime="0.23" meanTravelTime="63.00" duration="0" />
    <step time="78.00" loaded="500" emitted="70" running="69" waiting="9" ended="1" meanWaitingTime="0.23" meanTravelTime="63.00" duration="0" />
    <step time="79.00" loaded="500" emitted="71" running="70" waiting="9" ended="1" meanWaitingTime="0.23" meanTravelTime="63.00" duration="0" />
    <step time="80.00" loaded="500" emitted="71" running="70" waiting="10" ended="1" meanWaitingTime="0.23" meanTravelTime="63.00" duration="1" />
    <step time="81.00" loaded="500" emitted="71" running="70" waiting="11" ended="1" meanWaitingTime="0.23" meanTravelTime="63.00" duration="0" />
    <step time="82.00" loaded="500" emitted="71" running="70" waiting="12" ended="1" meanWaitingTime="0.23" meanTravelTime="63.00" duration="0" />
    <step time="83.00" loaded="500" emitted="71" running="70" waiting="13" ended="1" meanWaitingTime="0.23" meanTravelTime="63.00" duration="0" />
    <step time="84.00" loaded="500" emitted="71" running="69" waiting="14" ended="2" meanWaitingTime="0.23" meanTravelTime="59.50" duration="0" />
    <step time="85.00" loaded="500" emitted="71" running="69" waiting="15" ended="2" meanWaitingTime="0.23" meanTravelTime="59.50" duration="0" />
    <step time="86.00" loaded="500" emitted="71" running="69" waiting="16" ended="2" meanWaitingTime="0.23" meanTravelTime="59.50" duration="0" />
    <step time="87.00" loaded="500" emitted="72" running="68" waiting="16" ended="4" meanWaitingTime="0.22" meanTravelTime="57.50" duration="0" />
    <step time="88.00" loaded="500" emitted="72" running="68" waiting="17" ended="4" meanWaitingTime="0.22" meanTravelTime="57.50" duration="1" />
    <step time="89.00" loaded="500" emitted="73" running="68" waiting="17" ended="5" meanWaitingTime="0.45" meanTravelTime="63.80" duration="0" />
    <step time="90.00" loaded="500" emitted="73" running="68" waiting="18" ended="5" meanWaitingTime="0.45" meanTravelTime="63.80" duration="0" />
    <step time="91.00" loaded="500" emitted="73" running="68" waiting="19" ended="5" meanWaitingTime="0.45" meanTravelTime="63.80" duration="0" />
    <step time="92.00" loaded="500" emitted="74" running="68" waiting="19" ended="6" meanWaitingTime="0.45" meanTravelTime="65.00" duration="0" />
    <step time="93.00" loaded="500" emitted="75" running="69" waiting="19" ended="6" meanWaitingTime="0.44" meanTravelTime="65.00" duration="0" />
    <step time="94.00" loaded="500" emitted="76" running="70" waiting="19" ended="6" meanWaitingTime="0.43" meanTravelTime="65.00" duration="0" />
    <step time="95.00" loaded="500" emitted="76" running="69" waiting="20" ended="7" meanWaitingTime="0.43" meanTravelTime="64.86" duration="0" />
    <step time="96.00" loaded="500" emitted="76" running="69" waiting="21" ended="7" meanWaitingTime="0.43" meanTravelTime="64.86" duration="1" />
    <step time="97.00" loaded="500" emitted="77" running="70" waiting="21" ended="7" meanWaitingTime="0.43" meanTravelTime="64.86" duration="0" />
    <step time="98.00" loaded="500" emitted="78" running="71" waiting="21" ended="7" meanWaitingTime="0.42" meanTravelTime="64.86" duration="0" />
    <step time="99.00" loaded="500" emitted="78" running="71" waiting="22" ended="7" meanWaitingTime="0.42" meanTravelTime="64.86" duration="0" />
    <step time="100.00" loaded="500" emitted="78" running="71" waiting="23" ended="7" meanWaitingTime="0.42" meanTravelTime="64.86" duration="0" />
    <step time="101.00" loaded="500" emitted="79" running="72" waiting="23" ended="7" meanWaitingTime="0.42" meanTravelTime="64.86" duration="0" />
    <step time="102.00" loaded="500" emitted="79" running="72" waiting="24" ended="7" meanWaitingTime="0.42" meanTravelTime="64.86" duration="0" />
    <step time="103.00" loaded="500" emitted="80" running="73" waiting="24" ended="7" meanWaitingTime="0.41" meanTravelTime="64.86" duration="0" />
    <step time="104.00" loaded="500" emitted="81" running="74" waiting="24" ended="7" meanWaitingTime="0.41" meanTravelTime="64.86" duration="1" />
    <step time="105.00" loaded="500" emitted="81" running="74" waiting="25" ended="7" meanWaitingTime="0.41" meanTravelTime="64.86" duration="0" />
    <step time="106.00" loaded="500" emitted="82" running="75" waiting="25" ended="7" meanWaitingTime="0.40" meanTravelTime="64.86" duration="0" />
    <step time="107.00" loaded="500" emitted="84" running="77" waiting="24" ended="7" meanWaitingTime="0.42" meanTravelTime="64.86" duration="0" />
    <step time="108.00" loaded="500" emitted="84" running="77" waiting="25" ended="7" meanWaitingTime="0.42" meanTravelTime="64.86" duration="0" />
    <step time="109.00" loaded="500" emitted="84" running="77" waiting="26" ended="7" meanWaitingTime="0.42" meanTravelTime="64.86" duration="0" />
    <step time="110.00" loaded="500" emitted="85" running="78" waiting="26" ended="7" meanWaitingTime="0.41" meanTravelTime="64.86" duration="0" />
    <step time="111.00" loaded="500" emitted="85" running="78" waiting="27" ended="7" meanWaitingTime="0.41" meanTravelTime="64.86" duration="1" />
    <step time="112.00" loaded="500" emitted="86" running="79" waiting="27" ended="7" meanWaitingTime="0.41" meanTravelTime="64.86" duration="0" />
    <step time="113.00" loaded="500" emitted="86" running="79" waiting="28" ended="7" meanWaitingTime="0.41" meanTravelTime="64.86" duration="0" />
    <step time="114.00" loaded="500" emitted="87" running="80" waiting="28" ended="7" meanWaitingTime="0.40" meanTravelTime="64.86" duration="0" />
    <step time="115.00" loaded="500" emitted="88" running="81" waiting="28" ended="7" meanWaitingTime="0.40" meanTravelTime="64.86" duration="0" />
    <step time="116.00" loaded="500" emitted="88" running="81" waiting="29" ended="7" meanWaitingTime="0.40" meanTravelTime="64.86" duration="0" />
    <step time="117.00" loaded="500" emitted="88" running="81" waiting="30" ended="7" meanWaitingTime="0.40" meanTravelTime="64.86" duration="0" />
    <step time="118.00" loaded="500" emitted="88" running="81" waiting="31" ended="7" meanWaitingTime="0.40" meanTravelTime="64.86" duration="0" />
    <step time="119.00" loaded="500" emitted="88" running="81" waiting="32" ended="7" meanWaitingTime="0.40" meanTravelTime="64.86" duration="1" />
    <step time="120.00" loaded="500" emitted="89" running="82" waiting="32" ended="7" meanWaitingTime="0.39" meanTravelTime="64.86" duration="0" />
    <step time="121.00" loaded="500" emitted="90" running="83" waiting="32" ended="7" meanWaitingTime="0.39" meanTravelTime="64.86" duration="0" />
    <step time="122.00" loaded="500" emitted="90" running="83" waiting="33" ended="7" meanWaitingTime="0.39" meanTravelTime="64.86" duration="0" />
    <step time="123.00" loaded="500" emitted="91" running="84" waiting="33" ended="7" meanWaitingTime="0.38" meanTravelTime="64.86" duration="0" />
    <step time="124.00" loaded="500" emitted="91" running="84" waiting="34" ended="7" meanWaitingTime="0.38" meanTravelTime="64.86" duration="0" />
    <step time="125.00" loaded="500" emitted="91" running="84" waiting="35" ended="7" meanWaitingTime="0.38" meanTravelTime="64.86" duration="0" />
    <step time="126.00" loaded="500" emitted="92" running="85" waiting="35" ended="7" meanWaitingTime="0.38" meanTravelTime="64.86" duration="1" />
    <step time="127.00" loaded="500" emitted="93" running="86" waiting="35" ended="7" meanWaitingTime="0.38" meanTravelTime="64.86" duration="0" />
    <step time="128.00" loaded="500" emitted="93" running="86" waiting="36" ended="7" meanWaitingTime="0.38" meanTravelTime="64.86" duration="0" />
    <step time="129.00" loaded="500" emitted="93" running="83" waiting="37" ended="10" meanWaitingTime="0.38" meanTravelTime="69.90" duration="0" />
    <step time="130.00" loaded="500" emitted="93" running="83" waiting="38" ended="10" meanWaitingTime="0.38" meanTravelTime="69.90" duration="0" />
    <step time="131.00" loaded="500" emitted="93" running="83" waiting="39" ended="10" meanWaitingTime="0.38" meanTravelTime="69.90" duration="0" />
    <step time="132.00" loaded="500" emitted="93" running="83" waiting="40" ended="10" meanWaitingTime="0.38" meanTravelTime="69.90" duration="1" />
    <step time="133.00" loaded="500" emitted="93" running="83" waiting="41" ended="10" meanWaitingTime="0.38" meanTravelTime="69.90" duration="0" />
    <step time="134.00" loaded="500" emitted="93" running="83" waiting="42" ended="10" meanWaitingTime="0.38" meanTravelTime="69.90" duration="0" />
    <step time="135.00" loaded="500" emitted="94" running="84" waiting="42" ended="10" meanWaitingTime="0.37" meanTravelTime="69.90" duration="0" />
    <step time="136.00" loaded="500" emitted="95" running="85" waiting="42" ended="10" meanWaitingTime="0.37" meanTravelTime="69.90" duration="0" />
    <step time="137.00" loaded="500" emitted="95" running="85" waiting="43" ended="10" meanWaitingTime="0.37" meanTravelTime="69.90" duration="0" />
    <step time="138.00" loaded="500" emitted="95" running="85" waiting="44" ended="10" meanWaitingTime="0.37" meanTravelTime="69.90" duration="0" />
    <step time="139.00" loaded="500" emitted="96" running="86" waiting="44" ended="10" meanWaitingTime="0.38" meanTravelTime="69.90" duration="0" />
    <step time="140.00" loaded="500" emitted="97" running="87" waiting="44" ended="10" meanWaitingTime="0.37" meanTravelTime="69.90" duration="1" />
    <step time="141.00" loaded="500" emitted="97" running="87" waiting="45" ended="10" meanWaitingTime="0.37" meanTravelTime="69.90" duration="0" />
    <step time="142.00" loaded="500" emitted="99" running="89" waiting="44" ended="10" meanWaitingTime="0.39" meanTravelTime="69.90" duration="0" />
    <step time="143.00" loaded="500" emitted="99" running="89" waiting="45" ended="10" meanWaitingTime="0.39" meanTravelTime="69.90" duration="0" />
    <step time="144.00" loaded="500" emitted="100" running="90" waiting="45" ended="10" meanWaitingTime="0.39" meanTravelTime="69.90" duration="0" />
    <step time="145.00" loaded="500" emitted="100" running="90" waiting="46" ended="10" meanWaitingTime="0.39" meanTravelTime="69.90" duration="0" />
    <step time="146.00" loaded="500" emitted="100" running="90" waiting="47" ended="10" meanWaitingTime="0.39" meanTravelTime="69.90" duration="0" />
    <step time="147.00" loaded="500" emitted="101" running="91" waiting="47" ended="10" meanWaitingTime="0.41" meanTravelTime="69.90" duration="1" />
    <step time="148.00" loaded="500" emitted="101" running="91" waiting="48" ended="10" meanWaitingTime="0.41" meanTravelTime="69.90" duration="0" />
    <step time="149.00" loaded="500" emitted="102" running="92" waiting="48" ended="10" meanWaitingTime="0.40" meanTravelTime="69.90" duration="0" />
    <step time="150.00" loaded="500" emitted="102" running="91" waiting="49" ended="11" meanWaitingTime="0.40" meanTravelTime="76.18" duration="0" />
    <step time="151.00" loaded="500" emitted="103" running="92" waiting="49" ended="11" meanWaitingTime="0.40" meanTravelTime="76.18" duration="0" />
    <step time="152.00" loaded="500" emitted="103" running="92" waiting="50" ended="11" meanWaitingTime="0.40" meanTravelTime="76.18" duration="0" />
    <step time="153.00" loaded="500" emitted="103" running="92" waiting="51" ended="11" meanWaitingTime="0.40" meanTravelTime="76.18" duration="0" />
    <step time="154.00" loaded="500" emitted="104" running="92" waiting="51" ended="12" meanWaitingTime="0.41" meanTravelTime="74.50" duration="0" />
    <step time="155.00" loaded="500" emitted="104" running="92" waiting="52" ended="12" meanWaitingTime="0.41" meanTravelTime="74.50" duration="1" />
    <step time="156.00" loaded="500" emitted="105" running="93" waiting="52" ended="12" meanWaitingTime="0.41" meanTravelTime="74.50" duration="0" />
    <step time="157.00" loaded="500" emitted="107" running="95" waiting="51" ended="12" meanWaitingTime="0.43" meanTravelTime="74.50" duration="0" />
    <step time="158.00" loaded="500" emitted="107" running="94" waiting="52" ended="13" meanWaitingTime="0.43" meanTravelTime="76.69" duration="0" />
    <step time="159.00" loaded="500" emitted="107" running="93" waiting="53" ended="14" meanWaitingTime="0.43" meanTravelTime="78.14" duration="0" />
    <step time="160.00" loaded="500" emitted="108" running="94" waiting="53" ended="14" meanWaitingTime="0.44" meanTravelTime="78.14" duration="0" />
    <step time="161.00" loaded="500" emitted="108" running="94" waiting="54" ended="14" meanWaitingTime="0.44" meanTravelTime="78.14" duration="0" />
    <step time="162.00" loaded="500" emitted="109" running="95" waiting="54" ended="14" meanWaitingTime="0.44" meanTravelTime="78.14" duration="1" />
    <step time="163.00" loaded="500" emitted="109" running="95" waiting="55" ended="14" meanWaitingTime="0.44" meanTravelTime="78.14" duration="0" />
    <step time="164.00" loaded="500" emitted="109" running="94" waiting="56" ended="15" meanWaitingTime="0.44" meanTravelTime="82.13" duration="0" />
    <step time="165.00" loaded="500" emitted="110" running="95" waiting="56" ended="15" meanWaitingTime="0.45" meanTravelTime="82.13" duration="0" />
    <step time="166.00" loaded="500" emitted="110" running="95" waiting="57" ended="15" meanWaitingTime="0.45" meanTravelTime="82.13" duration="0" />
    <step time="167.00" loaded="500" emitted="110" running="95" waiting="58" ended="15" meanWaitingTime="0.45" meanTravelTime="82.13" duration="0" />
    <step time="168.00" loaded="500" emitted="112" running="97" waiting="57" ended="15" meanWaitingTime="1.40" meanTravelTime="82.13" duration="0" />
    <step time="169.00" loaded="500" emitted="112" running="97" waiting="58" ended="15" meanWaitingTime="1.40" meanTravelTime="82.13" duration="0" />
    <step time="170.00" loaded="500" emitted="113" running="98" waiting="58" ended="15" meanWaitingTime="2.12" meanTravelTime="82.13" duration="0" />
    <step time="171.00" loaded="500" emitted="113" running="98" waiting="59" ended="15" meanWaitingTime="2.12" meanTravelTime="82.13" duration="0" />
    <step time="172.00" loaded="500" emitted="113" running="97" waiting="60" ended="16" meanWaitingTime="2.12" meanTravelTime="83.62" duration="0" />
    <step time="173.00" loaded="500" emitted="114" running="98" waiting="60" ended="16" meanWaitingTime="2.47" meanTravelTime="83.62" duration="0" />
    <step time="174.00" loaded="500" emitted="115" running="99" waiting="60" ended="16" meanWaitingTime="2.45" meanTravelTime="83.62" duration="0" />
    <step time="175.00" loaded="500" emitted="115" running="99" waiting="61" ended="16" meanWaitingTime="2.45" meanTravelTime="83.62" duration="0" />
    <step time="176.00" loaded="500" emitted="116" running="100" waiting="61" ended="16" meanWaitingTime="2.73" meanTravelTime="83.62" duration="1" />
    <step time="177.00" loaded="500" emitted="116" running="100" waiting="62" ended="16" meanWaitingTime="2.73" meanTravelTime="83.62" duration="0" />
    <step time="178.00" loaded="500" emitted="116" running="99" waiting="63" ended="17" meanWaitingTime="2.73" meanTravelTime="87.88" duration="0" />
    <step time="179.00" loaded="500" emitted="117" running="100" waiting="63" ended="17" meanWaitingTime="2.96" meanTravelTime="87.88" duration="0" />
    <step time="180.00" loaded="500" emitted="117" running="99" waiting="64" ended="18" meanWaitingTime="2.96" meanTravelTime="92.06" duration="0" />
    <step time="181.00" loaded="500" emitted="117" running="98" waiting="65" ended="19" meanWaitingTime="2.96" meanTravelTime="92.84" duration="0" />
    <step time="182.00" loaded="500" emitted="119" running="100" waiting="64" ended="19" meanWaitingTime="2.97" meanTravelTime="92.84" duration="0" />
    <step time="183.00" loaded="500" emitted="119" running="100" waiting="65" ended="19" meanWaitingTime="2.97" meanTravelTime="92.84" duration="1" />
    <step time="184.00" loaded="500" emitted="119" running="100" waiting="66" ended="19" meanWaitingTime="2.97" meanTravelTime="92.84" duration="0" />
    <step time="185.00" loaded="500" emitted="119" running="100" waiting="67" ended="19" meanWaitingTime="2.97" meanTravelTime="92.84" duration="0" />
    <step time="186.00" loaded="500" emitted="120" running="101" waiting="67" ended="19" meanWaitingTime="3.92" meanTravelTime="92.84" duration="0" />
    <step time="187.00" loaded="500" emitted="120" running="101" waiting="68" ended="19" meanWaitingTime="3.92" meanTravelTime="92.84" duration="0" />
    <step time="188.00" loaded="500" emitted="122" running="103" waiting="67" ended="19" meanWaitingTime="3.92" meanTravelTime="92.84" duration="0" />
    <step time="189.00" loaded="500" emitted="123" running="104" waiting="67" ended="19" meanWaitingTime="3.89" meanTravelTime="92.84" duration="0" />
    <step time="190.00" loaded="500" emitted="124" running="105" waiting="67" ended="19" meanWaitingTime="3.85" meanTravelTime="92.84" duration="0" />
    <step time="191.00" loaded="500" emitted="126" running="107" waiting="66" ended="19" meanWaitingTime="3.84" meanTravelTime="92.84" duration="0" />
    <step time="192.00" loaded="500" emitted="126" running="107" waiting="67" ended="19" meanWaitingTime="3.84" meanTravelTime="92.84" duration="0" />
    <step time="193.00" loaded="500" emitted="127" running="108" waiting="67" ended="19" meanWaitingTime="4.77" meanTravelTime="92.84" duration="0" />
    <step time="194.00" loaded="500" emitted="127" running="107" waiting="68" ended="20" meanWaitingTime="4.77" meanTravelTime="94.80" duration="0" />