<?xml version="1.0" encoding="UTF-8"?>

<!-- generated on Sat Aug  9 15:16:20 2014 by SUMO sumo Version 0.18.0
<?xml version="1.0" encoding="UTF-8"?>

<configuration xmlns:xsi="http://www.w3.org/2001/XMLSchema-instance" xsi:noNamespaceSchemaLocation="http://sumo.sf.net/xsd/sumoConfiguration.xsd">

    <input>
        <net-file value="tl2/2-intersections/2/twoIntersections.net.xml"/>
        <route-files value="tl2/2-intersections/2/twoIntersections.500.rou.xml"/>
        <additional-files value="tl2/2-intersections/2/tlLogic.add.xml"/>
    </input>

    <output>
        <summary-output value="tl2/2-intersections/2/output-emissions.xml"/>
        <tripinfo-output value="tl2/2-intersections/2/output-tripinfos.xml"/>
        <vehroute-output value="tl2/2-intersections/2/output-vehroutes.xml"/>
        <save-state.prefix value="tl2/2-intersections/2/state"/>
    </output>

    <time>
        <begin value="0"/>
        <end value="1600"/>
    </time>

    <processing>
        <route-steps value="-1"/>
        <time-to-teleport value="-1"/>
    </processing>

    <random_number>
        <seed value="23423"/>
    </random_number>

</configuration>
-->

<routes xmlns:xsi="http://www.w3.org/2001/XMLSchema-instance" xsi:noNamespaceSchemaLocation="http://sumo.sf.net/xsd/routes_file.xsd">
    <vehicle id="1" depart="1.00" arrival="64.00">
        <route edges="-110#1 -50"/>
    </vehicle>

    <vehicle id="27" depart="28.00" arrival="84.00">
        <route edges="--103#0"/>
    </vehicle>

    <vehicle id="33" depart="33.00" arrival="87.00">
        <route edges="--103#1 -110#1"/>
    </vehicle>

    <vehicle id="30" depart="30.00" arrival="87.00">
        <route edges="-51"/>
    </vehicle>

    <vehicle id="0" depart="0.00" arrival="89.00">
        <route edges="-103#1 --103#1 -110#1"/>
    </vehicle>

    <vehicle id="19" depart="21.00" arrival="92.00">
        <route edges="--110#2"/>
    </vehicle>

    <vehicle id="31" depart="31.00" arrival="95.00">
        <route edges="--110#2"/>
    </vehicle>

    <vehicle id="45" depart="45.00" arrival="129.00">
        <route edges="--50 --110#1"/>
    </vehicle>

    <vehicle id="21" depart="24.00" arrival="129.00">
        <route edges="--110#2 --51"/>
    </vehicle>

    <vehicle id="73" depart="73.00" arrival="129.00">
        <route edges="-51"/>
    </vehicle>

    <vehicle id="11" depart="11.00" arrival="150.00">
        <route edges="-51 -50"/>
    </vehicle>

    <vehicle id="98" depart="98.00" arrival="154.00">
        <route edges="-51"/>
    </vehicle>

    <vehicle id="55" depart="55.00" arrival="158.00">
        <route edges="-51 -110#2"/>
    </vehicle>

    <vehicle id="61" depart="62.00" arrival="159.00">
        <route edges="--50 -110#2"/>
    </vehicle>

    <vehicle id="26" depart="26.00" arrival="164.00">
        <route edges="--50 --110#1 -103#1"/>
    </vehicle>

    <vehicle id="66" depart="66.00" arrival="172.00">
        <route edges="-110#0 -103#1"/>
    </vehicle>

    <vehicle id="22" depart="22.00" arrival="178.00">
        <route edges="-110#0 --103#0"/>
    </vehicle>

    <vehicle id="17" depart="17.00" arrival="180.00">
        <route edges="--110#0 -110#0 --103#0"/>
    </vehicle>

    <vehicle id="74" depart="74.00" arrival="181.00">
        <route edges="-103#0"/>
    </vehicle>

    <vehicle id="62" depart="62.00" arrival="194.00">
        <route edges="-110#0 -110#1"/>
    </vehicle>

    <vehicle id="32" depart="32.00" arrival="200.00">
        <route edges="-103#0 -110#1"/>
    </vehicle>

    <vehicle id="158" depart="160.00" arrival="201.00">
        <route edges="--103#1"/>
    </vehicle>

    <vehicle id="6" depart="6.00" arrival="207.00">
        <route edges="-103#0 -103#1"/>
    </vehicle>

    <vehicle id="4" depart="4.00" arrival="210.00">
        <route edges="-50 --50 --110#1 -103#1 --103#1"/>
    </vehicle>

    <vehicle id="41" depart="41.00" arrival="217.00">
        <route edges="--103#1 --110#0"/>
    </vehicle>

    <vehicle id="38" depart="38.00" arrival="226.00">
        <route edges="--110#2 -50"/>
    </vehicle>

    <vehicle id="34" depart="34.00" arrival="229.00">
        <route edges="-110#2 --110#2 -50"/>
    </vehicle>

    <vehicle id="140" depart="140.00" arrival="231.00">
        <route edges="--110#2 -50"/>
    </vehicle>

    <vehicle id="7" depart="7.00" arrival="237.00">
        <route edges="--110#1 -110#1 -50"/>
    </vehicle>

    <vehicle id="145" depart="147.00" arrival="237.00">
        <route edges="--103#1 --103#0"/>
    </vehicle>

    <vehicle id="181" depart="188.00" arrival="239.00">
        <route edges="--110#0"/>
    </vehicle>

    <vehicle id="60" depart="168.00" arrival="240.00">
        <route edges="-110#1 -50"/>
    </vehicle>

    <vehicle id="24" depart="24.00" arrival="240.00">
        <route edges="-110#1 -110#2"/>
    </vehicle>

    <vehicle id="10" depart="10.00" arrival="243.00">
        <route edges="--103#0 -103#0 -110#1 -50"/>
    </vehicle>

    <vehicle id="52" depart="52.00" arrival="245.00">
        <route edges="--103#1 -110#1 --51"/>
    </vehicle>

    <vehicle id="47" depart="47.00" arrival="247.00">
        <route edges="--103#0 -103#0 -110#1 -50"/>
    </vehicle>

    <vehicle id="2" depart="2.00" arrival="254.00">
        <route edges="--103#0 -103#0 -110#1 --51"/>
    </vehicle>

    <vehicle id="37" depart="37.00" arrival="257.00">
        <route edges="-103#1 --103#1 -110#1 -50"/>
    </vehicle>

    <vehicle id="25" depart="25.00" arrival="257.00">
        <route edges="--103#0 -103#0 -110#1 -110#2"/>
    </vehicle>

    <vehicle id="48" depart="50.00" arrival="259.00">
        <route edges="--103#0 -103#0 -110#1 --51"/>
    </vehicle>

    <vehicle id="71" depart="193.00" arrival="260.00">
        <route edges="-110#1 -110#2"/>
    </vehicle>

    <vehicle id="54" depart="54.00" arrival="269.00">
        <route edges="--110#2 --51"/>
    </vehicle>

    <vehicle id="135" depart="135.00" arrival="275.00">
        <route edges="-51"/>
    </vehicle>

    <vehicle id="20" depart="20.00" arrival="276.00">
        <route edges="-110#2 --110#2 --51"/>
    </vehicle>

    <vehicle id="12" depart="12.00" arrival="278.00">
        <route edges="--110#2 --51 -51"/>
    </vehicle>

    <vehicle id="57" depart="59.00" arrival="280.00">
        <route edges="--50 --51 -51"/>
    </vehicle>

    <vehicle id="123" depart="123.00" arrival="280.00">
        <route edges="--50"/>
    </vehicle>

    <vehicle id="182" depart="182.00" arrival="289.00">
        <route edges="--50"/>
    </vehicle>

    <vehicle id="156" depart="156.00" arrival="296.00">
        <route edges="-110#0"/>
    </vehicle>

    <vehicle id="189" depart="189.00" arrival="299.00">
        <route edges="-110#0"/>
    </vehicle>

    <vehicle id="105" depart="107.00" arrival="314.00">
        <route edges="-51 -50"/>
    </vehicle>

    <vehicle id="50" depart="50.00" arrival="316.00">
        <route edges="-110#1 --51 -51"/>
    </vehicle>

    <vehicle id="15" depart="15.00" arrival="318.00">
        <route edges="-110#0 -110#1 --51 -51"/>
    </vehicle>

    <vehicle id="42" depart="42.00" arrival="320.00">
        <route edges="-110#0 -110#1 --51 -51"/>
    </vehicle>

    <vehicle id="14" depart="14.00" arrival="322.00">
        <route edges="--110#0 -110#0 -110#1 --51 -51"/>
    </vehicle>

    <vehicle id="35" depart="35.00" arrival="323.00">
        <route edges="--103#0 -103#0 -110#1 --51 -51"/>
    </vehicle>

    <vehicle id="103" depart="103.00" arrival="327.00">
        <route edges="--50 --51"/>
    </vehicle>

    <vehicle id="58" depart="58.00" arrival="330.00">
        <route edges="-51 --110#1 -103#1"/>
    </vehicle>

    <vehicle id="18" depart="18.00" arrival="332.00">
        <route edges="--110#2 --110#1 -103#1"/>
    </vehicle>

    <vehicle id="101" depart="101.00" arrival="338.00">
        <route edges="--103#1 --103#0 -103#0"/>
    </vehicle>

    <vehicle id="68" depart="186.00" arrival="339.00">
        <route edges="--51 -51 -110#2"/>
    </vehicle>

    <vehicle id="8" depart="8.00" arrival="340.00">
        <route edges="-110#1 --110#1 --110#0"/>
    </vehicle>

    <vehicle id="16" depart="16.00" arrival="342.00">
        <route edges="--50 --110#1 --110#0"/>
    </vehicle>

    <vehicle id="159" depart="207.00" arrival="342.00">
        <route edges="-50 --50 --51"/>
    </vehicle>

    <vehicle id="225" depart="229.00" arrival="343.00">
        <route edges="--103#1"/>
    </vehicle>

    <vehicle id="56" depart="56.00" arrival="344.00">
        <route edges="--50 --110#1 --110#0"/>
    </vehicle>

    <vehicle id="176" depart="210.00" arrival="344.00">
        <route edges="-50 --50 --51"/>
    </vehicle>

    <vehicle id="43" depart="43.00" arrival="345.00">
        <route edges="--110#0 -110#0 --103#0"/>
    </vehicle>

    <vehicle id="207" depart="216.00" arrival="345.00">
        <route edges="-50 --50 --51"/>
    </vehicle>

    <vehicle id="136" depart="136.00" arrival="347.00">
        <route edges="-110#0 --103#0"/>
    </vehicle>

    <vehicle id="248" depart="248.00" arrival="354.00">
        <route edges="-51 -110#2"/>
    </vehicle>

    <vehicle id="321" depart="321.00" arrival="361.00">
        <route edges="--103#1"/>
    </vehicle>

    <vehicle id="152" depart="154.00" arrival="374.00">
        <route edges="-103#0 -103#1"/>
    </vehicle>

    <vehicle id="9" depart="9.00" arrival="381.00">
        <route edges="-110#2 --110#2 --110#1 -103#1 --103#1"/>
    </vehicle>

    <vehicle id="271" depart="271.00" arrival="382.00">
        <route edges="-103#0 -103#1"/>
    </vehicle>

    <vehicle id="97" depart="97.00" arrival="383.00">
        <route edges="--50 --110#1 -103#1 --103#1"/>
    </vehicle>

    <vehicle id="206" depart="206.00" arrival="389.00">
        <route edges="--103#1 --103#0"/>
    </vehicle>

    <vehicle id="174" depart="174.00" arrival="389.00">
        <route edges="--103#1 --103#0"/>
    </vehicle>

    <vehicle id="246" depart="246.00" arrival="390.00">
        <route edges="-103#0 --110#0"/>
    </vehicle>

    <vehicle id="29" depart="31.00" arrival="390.00">
        <route edges="--110#0 -110#0 -110#1"/>
    </vehicle>

    <vehicle id="335" depart="335.00" arrival="390.00">
        <route edges="--110#2"/>
    </vehicle>

    <vehicle id="76" depart="76.00" arrival="392.00">
        <route edges="-110#0 -110#1"/>
    </vehicle>

    <vehicle id="198" depart="376.00" arrival="395.00">
        <route edges="-110#1"/>
    </vehicle>

    <vehicle id="309" depart="346.00" arrival="396.00">
        <route edges="--110#0"/>
    </vehicle>

    <vehicle id="308" depart="308.00" arrival="398.00">
        <route edges="-103#0 -103#1"/>
    </vehicle>

    <vehicle id="315" depart="315.00" arrival="401.00">
        <route edges="--103#1 --110#0"/>
    </vehicle>

    <vehicle id="36" depart="36.00" arrival="408.00">
        <route edges="--103#1 -110#1 -110#2 --110#2"/>
    </vehicle>

    <vehicle id="154" depart="157.00" arrival="410.00">
        <route edges="-103#0 -103#1 --103#1"/>
    </vehicle>

    <vehicle id="371" depart="371.00" arrival="412.00">
        <route edges="--103#1"/>
    </vehicle>

    <vehicle id="364" depart="377.00" arrival="418.00">
        <route edges="-50"/>
    </vehicle>

    <vehicle id="46" depart="46.00" arrival="423.00">
        <route edges="-103#1 --103#1 -110#1 -110#2"/>
    </vehicle>

    <vehicle id="51" depart="51.00" arrival="424.00">
        <route edges="-103#1 --103#1 -110#1 -110#2"/>
    </vehicle>

    <vehicle id="69" depart="69.00" arrival="429.00">
        <route edges="-110#0 -110#1 -110#2"/>
    </vehicle>

    <vehicle id="108" depart="338.00" arrival="430.00">
        <route edges="-110#1 -110#2"/>
    </vehicle>

    <vehicle id="92" depart="92.00" arrival="436.00">
        <route edges="--103#1 -110#1 -110#2"/>
    </vehicle>

    <vehicle id="215" depart="217.00" arrival="441.00">
        <route edges="--103#1 --103#0 -103#0"/>
    </vehicle>

    <vehicle id="151" depart="151.00" arrival="444.00">
        <route edges="-103#0 -110#1 -50"/>
    </vehicle>

    <vehicle id="107" depart="107.00" arrival="447.00">
        <route edges="--110#2 --51"/>
    </vehicle>

    <vehicle id="221" depart="221.00" arrival="459.00">
        <route edges="--110#2 --51"/>
    </vehicle>

    <vehicle id="387" depart="387.00" arrival="460.00">
        <route edges="-51"/>
    </vehicle>

    <vehicle id="104" depart="104.00" arrival="463.00">
        <route edges="-51 -50 --50"/>
    </vehicle>

    <vehicle id="149" depart="149.00" arrival="465.00">
        <route edges="-51 -50 --50"/>
    </vehicle>

    <vehicle id="260" depart="260.00" arrival="467.00">
        <route edges="--110#2 --110#1"/>
    </vehicle>

    <vehicle id="300" depart="300.00" arrival="470.00">
        <route edges="--110#2 --110#1"/>
    </vehicle>

    <vehicle id="13" depart="13.00" arrival="470.00">
        <route edges="-103#0 --110#0 -110#0"/>
    </vehicle>

    <vehicle id="5" depart="5.00" arrival="472.00">
        <route edges="--51 -51 --110#1"/>
    </vehicle>

    <vehicle id="274" depart="276.00" arrival="480.00">
        <route edges="--110#2 -50 --50"/>
    </vehicle>

    <vehicle id="144" depart="144.00" arrival="482.00">
        <route edges="--103#1 -110#1 -50 --50"/>
    </vehicle>

    <vehicle id="120" depart="120.00" arrival="497.00">
        <route edges="--50 --110#1 -103#1"/>
    </vehicle>

    <vehicle id="219" depart="219.00" arrival="501.00">
        <route edges="--50 --110#1 -103#1"/>
    </vehicle>

    <vehicle id="112" depart="112.00" arrival="506.00">
        <route edges="-110#0 -103#1"/>
    </vehicle>

    <vehicle id="261" depart="261.00" arrival="510.00">
        <route edges="-51 -110#2"/>
    </vehicle>

    <vehicle id="88" depart="170.00" arrival="512.00">
        <route edges="--110#0 -110#0 --103#0"/>
    </vehicle>

    <vehicle id="250" depart="250.00" arrival="514.00">
        <route edges="-50 --50 --51"/>
    </vehicle>

    <vehicle id="175" depart="182.00" arrival="515.00">
        <route edges="--110#0 -110#0 --103#0"/>
    </vehicle>

    <vehicle id="229" depart="229.00" arrival="516.00">
        <route edges="-110#0 --103#0"/>
    </vehicle>

    <vehicle id="323" depart="323.00" arrival="518.00">
        <route edges="--50 --51"/>
    </vehicle>

    <vehicle id="23" depart="23.00" arrival="520.00">
        <route edges="-51 --110#1 --103#0"/>
    </vehicle>

    <vehicle id="373" depart="373.00" arrival="530.00">
        <route edges="--50 --51"/>
    </vehicle>

    <vehicle id="168" depart="168.00" arrival="540.00">
        <route edges="--50 --110#1 -103#1 --103#1"/>
    </vehicle>

    <vehicle id="231" depart="231.00" arrival="542.00">
        <route edges="--50 --110#1 -103#1 --103#1"/>
    </vehicle>

    <vehicle id="408" depart="408.00" arrival="556.00">
        <route edges="--103#1 --103#0"/>
    </vehicle>

    <vehicle id="402" depart="402.00" arrival="556.00">
        <route edges="--103#1 --103#0"/>
    </vehicle>

    <vehicle id="455" depart="455.00" arrival="557.00">
        <route edges="--103#1 --110#0"/>
    </vehicle>

    <vehicle id="431" depart="431.00" arrival="557.00">
        <route edges="--103#1 --103#0"/>
    </vehicle>

    <vehicle id="458" depart="461.00" arrival="559.00">
        <route edges="--103#1 --110#0"/>
    </vehicle>

    <vehicle id="39" depart="39.00" arrival="559.00">
        <route edges="-103#0 -110#1 -110#2 --110#2"/>
    </vehicle>

    <vehicle id="451" depart="451.00" arrival="561.00">
        <route edges="--103#1 --103#0"/>
    </vehicle>

    <vehicle id="94" depart="94.00" arrival="561.00">
        <route edges="-103#0 -110#1 -110#2 --110#2"/>
    </vehicle>

    <vehicle id="114" depart="114.00" arrival="563.00">
        <route edges="-103#0 -110#1 -110#2 --110#2"/>
    </vehicle>

    <vehicle id="480" depart="480.00" arrival="564.00">
        <route edges="--103#1 --110#0"/>
    </vehicle>

    <vehicle id="110" depart="110.00" arrival="568.00">
        <route edges="-51 -110#2 --110#2"/>
    </vehicle>

    <vehicle id="224" depart="226.00" arrival="570.00">
        <route edges="--103#1 -110#1"/>
    </vehicle>

    <vehicle id="106" depart="106.00" arrival="570.00">
        <route edges="--50 -110#2 --110#2"/>
    </vehicle>

    <vehicle id="44" depart="44.00" arrival="571.00">
        <route edges="-51 --110#1 --103#0 -103#0"/>
    </vehicle>

    <vehicle id="443" depart="443.00" arrival="572.00">
        <route edges="-103#0 -103#1 --103#1"/>
    </vehicle>

    <vehicle id="196" depart="198.00" arrival="572.00">
        <route edges="--50 -110#2 --110#2"/>
    </vehicle>

    <vehicle id="232" depart="234.00" arrival="574.00">
        <route edges="--50 -110#2 --110#2"/>
    </vehicle>

    <vehicle id="205" depart="207.00" arrival="584.00">
        <route edges="-103#0 -110#1 -110#2 --110#2"/>
    </vehicle>

    <vehicle id="259" depart="259.00" arrival="587.00">
        <route edges="-103#0 -110#1 -110#2 --110#2"/>
    </vehicle>

    <vehicle id="113" depart="351.00" arrival="589.00">
        <route edges="-110#1 -110#2 --110#2"/>
    </vehicle>

    <vehicle id="465" depart="556.00" arrival="597.00">
        <route edges="-50"/>
    </vehicle>

    <vehicle id="440" depart="440.00" arrival="608.00">
        <route edges="--103#1 --103#0 -103#0"/>
    </vehicle>

    <vehicle id="279" depart="279.00" arrival="610.00">
        <route edges="-103#0 -110#1 -110#2"/>
    </vehicle>

    <vehicle id="53" depart="53.00" arrival="611.00">
        <route edges="--110#0 -110#0 -110#1 -110#2"/>
    </vehicle>

    <vehicle id="340" depart="342.00" arrival="611.00">
        <route edges="--103#1 -110#1 --51"/>
    </vehicle>

    <vehicle id="391" depart="393.00" arrival="613.00">
        <route edges="-103#0 -110#1 -110#2"/>
    </vehicle>

    <vehicle id="251" depart="559.00" arrival="615.00">
        <route edges="--51"/>
    </vehicle>

    <vehicle id="278" depart="278.00" arrival="627.00">
        <route edges="-110#0"/>
    </vehicle>

    <vehicle id="59" depart="59.00" arrival="627.00">
        <route edges="--103#1 -110#1 --110#1"/>
    </vehicle>

    <vehicle id="220" depart="515.00" arrival="632.00">
        <route edges="-110#1 -50"/>
    </vehicle>

    <vehicle id="383" depart="385.00" arrival="632.00">
        <route edges="--110#2 --51"/>
    </vehicle>

    <vehicle id="346" depart="576.00" arrival="632.00">
        <route edges="--51"/>
    </vehicle>

    <vehicle id="65" depart="65.00" arrival="645.00">
        <route edges="--110#2 --51 -51"/>
    </vehicle>

    <vehicle id="441" depart="441.00" arrival="645.00">
        <route edges="-51"/>
    </vehicle>

    <vehicle id="467" depart="467.00" arrival="657.00">
        <route edges="--50"/>
    </vehicle>

    <vehicle id="243" depart="243.00" arrival="663.00">
        <route edges="--103#1 -110#1 -50 --50"/>
    </vehicle>

    <vehicle id="78" depart="199.00" arrival="666.00">
        <route edges="-110#1 --110#1 -103#1"/>
    </vehicle>

    <vehicle id="121" depart="121.00" arrival="673.00">
        <route edges="-110#0 -103#1"/>
    </vehicle>

    <vehicle id="40" depart="41.00" arrival="673.00">
        <route edges="--110#2 --110#1 --110#0"/>
    </vehicle>

    <vehicle id="193" depart="201.00" arrival="679.00">
        <route edges="--110#0 -110#0 --103#0"/>
    </vehicle>

    <vehicle id="117" depart="218.00" arrival="682.00">
        <route edges="--51 -51 -50"/>
    </vehicle>

    <vehicle id="122" depart="221.00" arrival="687.00">
        <route edges="--51 -51 -50"/>
    </vehicle>

    <vehicle id="93" depart="93.00" arrival="688.00">
        <route edges="--50 --110#1 --103#0"/>
    </vehicle>

    <vehicle id="435" depart="435.00" arrival="696.00">
        <route edges="-51 -110#2"/>
    </vehicle>

    <vehicle id="400" depart="400.00" arrival="696.00">
        <route edges="-50 --50 --51"/>
    </vehicle>

    <vehicle id="235" depart="398.00" arrival="698.00">
        <route edges="--51 -51 -110#2"/>
    </vehicle>

    <vehicle id="330" depart="330.00" arrival="699.00">
        <route edges="--110#2 --110#1 -103#1 --103#1"/>
    </vehicle>

    <vehicle id="412" depart="412.00" arrival="699.00">
        <route edges="-50 --50 --51"/>
    </vehicle>

    <vehicle id="128" depart="201.00" arrival="702.00">
        <route edges="-50 --50 --110#1 -103#1 --103#1"/>
    </vehicle>

    <vehicle id="238" depart="238.00" arrival="703.00">
        <route edges="--50 --110#1 -103#1 --103#1"/>
    </vehicle>

    <vehicle id="481" depart="481.00" arrival="703.00">
        <route edges="-51 -110#2"/>
    </vehicle>

    <vehicle id="473" depart="473.00" arrival="707.00">
        <route edges="--50 -110#2"/>
    </vehicle>

    <vehicle id="281" depart="281.00" arrival="739.00">
        <route edges="-110#0 --103#0 -103#0"/>
    </vehicle>

    <vehicle id="317" depart="318.00" arrival="750.00">
        <route edges="--103#1 -110#1"/>
    </vehicle>

    <vehicle id="462" depart="467.00" arrival="753.00">
        <route edges="--103#1 -110#1"/>
    </vehicle>

    <vehicle id="329" depart="680.00" arrival="761.00">
        <route edges="-110#1"/>
    </vehicle>

    <vehicle id="82" depart="627.00" arrival="784.00">
        <route edges="--103#0 -103#0 --110#0"/>
    </vehicle>

    <vehicle id="63" depart="65.00" arrival="797.00">
        <route edges="--50 --110#1 --110#0 -110#0"/>
    </vehicle>

    <vehicle id="459" depart="464.00" arrival="798.00">
        <route edges="--103#1 -110#1 --51"/>
    </vehicle>

    <vehicle id="257" depart="257.00" arrival="798.00">
        <route edges="--50 --110#1"/>
    </vehicle>

    <vehicle id="415" depart="415.00" arrival="800.00">
        <route edges="--103#1 -110#1 --51"/>
    </vehicle>

    <vehicle id="190" depart="190.00" arrival="800.00">
        <route edges="--103#1 --110#0 -110#0"/>
    </vehicle>

    <vehicle id="75" depart="75.00" arrival="805.00">
        <route edges="--110#0 -110#0 -110#1 -110#2"/>
    </vehicle>

    <vehicle id="479" depart="479.00" arrival="808.00">
        <route edges="-103#0 -110#1 --51"/>
    </vehicle>

    <vehicle id="318" depart="677.00" arrival="812.00">
        <route edges="-110#1 -110#2"/>
    </vehicle>

    <vehicle id="421" depart="693.00" arrival="813.00">
        <route edges="-110#1 -110#2"/>
    </vehicle>

    <vehicle id="173" depart="364.00" arrival="817.00">
        <route edges="-110#1 -50 --50"/>
    </vehicle>

    <vehicle id="216" depart="219.00" arrival="833.00">
        <route edges="-50 --50 --110#1 -103#1"/>
    </vehicle>

    <vehicle id="142" depart="142.00" arrival="842.00">
        <route edges="--50 --110#1 --110#0"/>
    </vehicle>

    <vehicle id="492" depart="789.00" arrival="845.00">
        <route edges="--51"/>
    </vehicle>

    <vehicle id="365" depart="367.00" arrival="848.00">
        <route edges="--110#0 -110#0 --103#0"/>
    </vehicle>

    <vehicle id="203" depart="203.00" arrival="855.00">
        <route edges="--50 --110#1 --103#0"/>
    </vehicle>

    <vehicle id="210" depart="210.00" arrival="858.00">
        <route edges="--50 --110#1 --103#0"/>
    </vehicle>

    <vehicle id="100" depart="195.00" arrival="862.00">
        <route edges="-50 --50 --110#1 --103#0"/>
    </vehicle>

    <vehicle id="147" depart="204.00" arrival="866.00">
        <route edges="-50 --50 --110#1 -103#1 --103#1"/>
    </vehicle>

    <vehicle id="178" depart="227.00" arrival="867.00">
        <route edges="--51 -51 -50"/>
    </vehicle>

    <vehicle id="139" depart="142.00" arrival="870.00">
        <route edges="-110#0 -103#1 --103#1"/>
    </vehicle>

    <vehicle id="242" depart="827.00" arrival="883.00">
        <route edges="--103#0"/>
    </vehicle>

    <vehicle id="297" depart="297.00" arrival="895.00">
        <route edges="-110#0 --103#0 -103#0"/>
    </vehicle>

    <vehicle id="213" depart="213.00" arrival="909.00">
        <route edges="--50 --110#1 --103#0 -103#0"/>
    </vehicle>

    <vehicle id="403" depart="857.00" arrival="913.00">
        <route edges="--103#0"/>
    </vehicle>

    <vehicle id="305" depart="305.00" arrival="914.00">
        <route edges="--50 --110#1 --103#0 -103#0"/>
    </vehicle>

    <vehicle id="491" depart="866.00" arrival="922.00">
        <route edges="--103#0"/>
    </vehicle>

    <vehicle id="332" depart="332.00" arrival="929.00">
        <route edges="--50 -110#2 --110#2"/>
    </vehicle>

    <vehicle id="430" depart="432.00" arrival="931.00">
        <route edges="--50 -110#2 --110#2"/>
    </vehicle>

    <vehicle id="214" depart="214.00" arrival="934.00">
        <route edges="--103#1 -110#1 -110#2 --110#2"/>
    </vehicle>

    <vehicle id="223" depart="223.00" arrival="936.00">
        <route edges="--103#1 -110#1 -110#2 --110#2"/>
    </vehicle>

    <vehicle id="439" depart="439.00" arrival="938.00">
        <route edges="-103#0 -110#1 -110#2 --110#2"/>
    </vehicle>

    <vehicle id="471" depart="471.00" arrival="940.00">
        <route edges="-51 -110#2 --110#2"/>
    </vehicle>

    <vehicle id="266" depart="266.00" arrival="941.00">
        <route edges="--103#1 -110#1"/>
    </vehicle>

    <vehicle id="285" depart="525.00" arrival="942.00">
        <route edges="-110#1 -110#2 --110#2"/>
    </vehicle>

    <vehicle id="249" depart="249.00" arrival="944.00">
        <route edges="--103#1 -110#1 -110#2 --110#2"/>
    </vehicle>

    <vehicle id="426" depart="696.00" arrival="951.00">
        <route edges="-110#1 -110#2 --110#2"/>
    </vehicle>

    <vehicle id="161" depart="812.00" arrival="960.00">
        <route edges="--103#0 -103#0 --110#0"/>
    </vehicle>

    <vehicle id="290" depart="290.00" arrival="964.00">
        <route edges="-50 --50 --110#1"/>
    </vehicle>

    <vehicle id="239" depart="824.00" arrival="971.00">
        <route edges="--103#0 -103#0 --110#0"/>
    </vehicle>

    <vehicle id="277" depart="796.00" arrival="975.00">
        <route edges="-110#2 --110#2 -50"/>
    </vehicle>

    <vehicle id="303" depart="799.00" arrival="977.00">
        <route edges="-110#2 --110#2 -50"/>
    </vehicle>

    <vehicle id="126" depart="126.00" arrival="980.00">
        <route edges="-110#0 -110#1 --51"/>
    </vehicle>

    <vehicle id="280" depart="280.00" arrival="999.00">
        <route edges="--50 --110#1 -103#1"/>
    </vehicle>

    <vehicle id="72" depart="89.00" arrival="1006.00">
        <route edges="-50 --50 --110#1 --110#0 -110#0"/>
    </vehicle>

    <vehicle id="130" depart="173.00" arrival="1007.00">
        <route edges="--110#0 -110#0 -103#1"/>
    </vehicle>

    <vehicle id="141" depart="176.00" arrival="1009.00">
        <route edges="--110#0 -110#0 -103#1"/>
    </vehicle>

    <vehicle id="150" depart="179.00" arrival="1012.00">
        <route edges="--110#0 -110#0 -103#1"/>
    </vehicle>

    <vehicle id="3" depart="3.00" arrival="1013.00">
        <route edges="-51 --110#1 --110#0 -110#0"/>
    </vehicle>

    <vehicle id="296" depart="298.00" arrival="1034.00">
        <route edges="--50 --110#1 -103#1 --103#1"/>
    </vehicle>

    <vehicle id="255" depart="833.00" arrival="1042.00">
        <route edges="--103#0 -103#0 -103#1"/>
    </vehicle>

    <vehicle id="287" depart="289.00" arrival="1052.00">
        <route edges="-51 -50"/>
    </vehicle>

    <vehicle id="265" depart="836.00" arrival="1053.00">
        <route edges="--103#0 -103#0 --110#0"/>
    </vehicle>

    <vehicle id="322" depart="842.00" arrival="1056.00">
        <route edges="--103#0 -103#0 --110#0"/>
    </vehicle>

    <vehicle id="118" depart="198.00" arrival="1066.00">
        <route edges="-50 --50 --110#1 --103#0 -103#0"/>
    </vehicle>

    <vehicle id="119" depart="800.00" arrival="1116.00">
        <route edges="--103#0 -103#0 -110#1"/>
    </vehicle>

    <vehicle id="134" depart="806.00" arrival="1121.00">
        <route edges="--103#0 -103#0 -110#1"/>
    </vehicle>

    <vehicle id="160" depart="809.00" arrival="1123.00">
        <route edges="--103#0 -103#0 -110#1"/>
    </vehicle>

    <vehicle id="202" depart="818.00" arrival="1125.00">
        <route edges="--103#0 -103#0 -110#1"/>
    </vehicle>

    <vehicle id="157" depart="157.00" arrival="1129.00">
        <route edges="--103#1 --110#0 -110#0"/>
    </vehicle>

    <vehicle id="353" depart="848.00" arrival="1134.00">
        <route edges="--103#0 -103#0 -110#1"/>
    </vehicle>

    <vehicle id="378" depart="851.00" arrival="1135.00">
        <route edges="--103#0 -103#0 -110#1"/>
    </vehicle>

    <vehicle id="354" depart="938.00" arrival="1153.00">
        <route edges="-110#2 --110#2 -50"/>
    </vehicle>

    <vehicle id="162" depart="162.00" arrival="1167.00">
        <route edges="-51 --110#1 --110#0 -110#0"/>
    </vehicle>

    <vehicle id="200" depart="202.00" arrival="1167.00">
        <route edges="-110#0 -110#1 --51"/>
    </vehicle>

    <vehicle id="463" depart="463.00" arrival="1169.00">
        <route edges="--110#2 --110#1 -103#1"/>
    </vehicle>

    <vehicle id="116" depart="354.00" arrival="1170.00">
        <route edges="-110#1 --110#1 -103#1"/>
    </vehicle>

    <vehicle id="125" depart="803.00" arrival="1170.00">
        <route edges="--103#0 -103#0 -110#1 -110#2"/>
    </vehicle>

    <vehicle id="311" depart="839.00" arrival="1181.00">
        <route edges="--103#0 -103#0 -110#1 --51"/>
    </vehicle>

    <vehicle id="201" depart="201.00" arrival="1182.00">
        <route edges="-51 --110#1 --103#0"/>
    </vehicle>

    <vehicle id="208" depart="208.00" arrival="1190.00">
        <route edges="-51 --110#1 --103#0"/>
    </vehicle>

    <vehicle id="413" depart="414.00" arrival="1200.00">
        <route edges="--110#2 --110#1 -103#1 --103#1"/>
    </vehicle>

    <vehicle id="422" depart="422.00" arrival="1202.00">
        <route edges="--110#2 --110#1 -103#1 --103#1"/>
    </vehicle>
