<?xml version="1.0"?>

<!-- generated on Mon Jun 14 19:57:55 2010 by SUMO sumo Version 0.11.1
<configuration>

    <input>
        <net-file value="condor/tl2/bahia-rivadavia/40/rivadavia.net.xml"/>
        <route-files value="condor/tl2/bahia-rivadavia/40/rivadavia.500.rou.xml"/>
        <additional-files value="condor/tl2/bahia-rivadavia/40/tl-logic.add.xml"/>
    </input>

    <output>
        <emissions-output value="condor/tl2/bahia-rivadavia/40/output-emissions.xml"/>
        <tripinfo-output value="condor/tl2/bahia-rivadavia/40/output-tripinfos.xml"/>
        <vehroute-output value="condor/tl2/bahia-rivadavia/40/output-vehroutes.xml"/>
    </output>

    <time>
        <begin value="0"/>
        <end value="500"/>
    </time>

    <processing>
        <route-steps value="-1"/>
        <time-to-teleport value="-1"/>
    </processing>

    <report>
        <print-options value="false"/>
        <suppress-warnings value="true"/>
    </report>

    <random_number>
        <srand value="23423"/>
    </random_number>

    <gui_only>
        <gui-settings-file value=""/>
    </gui_only>

</configuration>
-->

<routes>
    <vehicle id="Rand363" depart="3" arrival="4">
        <route edges="27077992#2"/>
   </vehicle>

    <vehicle id="Rand396" depart="3" arrival="4">
        <route edges="27082600#0"/>
   </vehicle>

    <vehicle id="Rand556" depart="9" arrival="10">
        <route edges="27083337#1"/>
   </vehicle>

    <vehicle id="Rand28" depart="0" arrival="17">
        <route edges="27082629#5 27082629#6 27082629#7"/>
   </vehicle>

    <vehicle id="Rand107" depart="0" arrival="21">
        <route edges="27082604#0 27083324#0"/>
   </vehicle>

    <vehicle id="Rand124" depart="0" arrival="26">
        <route edges="27056035#0 27494703#0"/>
   </vehicle>

    <vehicle id="Rand58" depart="9" arrival="30">
        <route edges="27053786#1 27053786#2"/>
   </vehicle>

    <vehicle id="Rand207" depart="0" arrival="39">
        <route edges="-27082628#1 27082604#4 27082604#5"/>
   </vehicle>

    <vehicle id="Rand174" depart="0" arrival="45">
        <route edges="27055797#1 27639462#0 27639462#1"/>
   </vehicle>

    <vehicle id="Rand330" depart="0" arrival="46">
        <route edges="27082616#3 27082616#4 27082616#5"/>
   </vehicle>

    <vehicle id="Rand316" depart="6" arrival="48">
        <route edges="27052071#1 27053171#1 27053171#2 27053171#3"/>
   </vehicle>

    <vehicle id="Rand584" depart="15" arrival="48">
        <route edges="27056035#1 27056035#2 27056027#2"/>
   </vehicle>

    <vehicle id="Rand210" depart="3" arrival="50">
        <route edges="27082617#3 27077992#1 27082616#2 27082616#3"/>
   </vehicle>

    <vehicle id="Rand460" depart="6" arrival="50">
        <route edges="27053106#4 -28629700#3 -27494703#1"/>
   </vehicle>

    <vehicle id="Rand181" depart="3" arrival="51">
        <route edges="27082600#4 -27082628#2 28813885#1"/>
   </vehicle>

    <vehicle id="Rand153" depart="0" arrival="53">
        <route edges="27486763#0+27486763#2 27082625#1 27082625#2 27082624#1 27082624#2 27082624#3"/>
   </vehicle>

    <vehicle id="Rand478" depart="9" arrival="53">
        <route edges="27053106#4 -28629700#3 -27494703#1"/>
   </vehicle>

    <vehicle id="Rand244" depart="3" arrival="55">
        <route edges="28813885#1 28813885#2 27078417#1 27082600#3 27082600#4"/>
   </vehicle>

    <vehicle id="Rand328" depart="3" arrival="55">
        <route edges="27078417#1 27078417#2 27078417#3"/>
   </vehicle>

    <vehicle id="Rand532" depart="3" arrival="57">
        <route edges="-27082628#2 27082628#2 27082628#3"/>
   </vehicle>

    <vehicle id="Rand389" depart="9" arrival="57">
        <route edges="27082629#3 27082629#4 27082629#5 27082625#0 27082625#1 27082625#2"/>
   </vehicle>

    <vehicle id="Rand454" depart="3" arrival="59">
        <route edges="27082624#1 27082624#2 27082624#3 27082624#4"/>
   </vehicle>

    <vehicle id="Rand122" depart="0" arrival="60">
        <route edges="27077992#1 27077992#2 27082600#4"/>
   </vehicle>

    <vehicle id="Rand344" depart="9" arrival="63">
        <route edges="28813885#1 28813885#2 27078417#1 27078417#2 27082616#3"/>
   </vehicle>

    <vehicle id="Rand507" depart="4" arrival="64">
        <route edges="27082600#0 27053170#2 27053170#3 27082617#1"/>
   </vehicle>

    <vehicle id="Rand585" depart="5" arrival="65">
        <route edges="-27082628#0 27082629#5 27082629#6 27082605"/>
   </vehicle>

    <vehicle id="Rand395" depart="3" arrival="71">
        <route edges="27078417#0 28813885#3 28813885#4 27053170#1"/>
   </vehicle>

    <vehicle id="Rand604" depart="6" arrival="73">
        <route edges="27082628#4 -27082628#4 27082616#1 27082616#2 27082616#3"/>
   </vehicle>

    <vehicle id="Rand567" depart="4" arrival="76">
        <route edges="28629700#3 27122600#0 27122600#1 27056035#0"/>
   </vehicle>

    <vehicle id="Rand233" depart="3" arrival="77">
        <route edges="-27082628#3 27082628#3 27082628#4"/>
   </vehicle>

    <vehicle id="Rand370" depart="3" arrival="78">
        <route edges="-27494703#1 27056034#3 27082629#0 27052067#4"/>
   </vehicle>

    <vehicle id="Rand175" depart="0" arrival="80">
        <route edges="27052067#1 27053786#1 27083324#3"/>
   </vehicle>

    <vehicle id="Rand93" depart="0" arrival="81">
        <route edges="27053170#2 27082616#5 27053106#2 27082600#0 27082600#1"/>
   </vehicle>

    <vehicle id="Rand99" depart="6" arrival="87">
        <route edges="27053790#4 27078417#0 27078417#1 27078417#2 27078417#3"/>
   </vehicle>

    <vehicle id="Rand365" depart="0" arrival="88">
        <route edges="28813885#3 28813885#4 27053170#1 27053170#2 27082616#5 27053106#2"/>
   </vehicle>

    <vehicle id="Rand190" depart="0" arrival="90">
        <route edges="27082600#1 27082600#2 27082600#3 27077992#3 27077992#4"/>
   </vehicle>

    <vehicle id="Rand258" depart="1" arrival="91">
        <route edges="-27082628#0 27082629#5 27082625#0 27082625#1 27082625#2 27082625#3 27053786#5"/>
   </vehicle>

    <vehicle id="Rand435" depart="3" arrival="97">
        <route edges="27082600#1 27053782#3 28813885#4 28813885#5 27052071#0"/>
   </vehicle>

    <vehicle id="Rand447" depart="9" arrival="99">
        <route edges="27053106#3 27052071#0 27052071#1 27053171#1 27053171#2"/>
   </vehicle>

    <vehicle id="Rand73" depart="6" arrival="100">
        <route edges="28813885#0 28813885#1 28813885#2"/>
   </vehicle>

    <vehicle id="Rand117" depart="0" arrival="100">
        <route edges="27082628#1 28813885#1 28813885#2 28813885#3 28813885#4 28813885#5 27052071#0 27052071#1 27052071#2"/>
   </vehicle>

    <vehicle id="Rand283" depart="6" arrival="101">
        <route edges="28813885#2 28813885#3 28813885#4 27053170#1 27053170#2 27053170#3 27082617#1 27082617#2"/>
   </vehicle>

    <vehicle id="Rand416" depart="9" arrival="102">
        <route edges="27053791#0 27082629#4 27082628#0 27082628#1"/>
   </vehicle>

    <vehicle id="Rand274" depart="6" arrival="102">
        <route edges="27082600#3 27077992#3 28813885#2 28813885#3 27053782#4 27082604#1 27078417#0"/>
   </vehicle>

    <vehicle id="Rand145" depart="0" arrival="102">
        <route edges="27053106#3 27053106#4 27122600#0 27082629#0 27052067#4 27082604#0 27082604#1"/>
   </vehicle>

    <vehicle id="Rand476" depart="9" arrival="103">
        <route edges="-27494703#1 27494703#1 -28629700#2 27053171#0"/>
   </vehicle>

    <vehicle id="Rand168" depart="0" arrival="103">
        <route edges="28813885#2 28813885#3 28813885#4 28813885#5 27053106#4 -28629700#3 -28629700#2 -28629700#1"/>
   </vehicle>

    <vehicle id="Rand353" depart="0" arrival="104">
        <route edges="27082629#0 27082629#1 27083324#1 27082624#4"/>
   </vehicle>

    <vehicle id="Rand218" depart="0" arrival="104">
        <route edges="27052067#3 27082629#1 27082629#2 27082629#3 27082629#4 27082629#5 27082625#0"/>
   </vehicle>

    <vehicle id="Rand423" depart="1" arrival="105">
        <route edges="-28629700#1 28629700#1 27053171#0 27052071#2 27052071#3"/>
   </vehicle>

    <vehicle id="Rand508" depart="20" arrival="105">
        <route edges="27052067#3 27082629#1 27083324#1"/>
   </vehicle>

    <vehicle id="Rand215" depart="0" arrival="110">
        <route edges="27082625#0 27082625#1 27082625#2 27082624#1 27082624#2 27053790#3 27053790#4 27082604#2 27053791#0"/>
   </vehicle>

    <vehicle id="Rand138" depart="0" arrival="112">
        <route edges="27082600#3 27077992#3 28813885#2 27078417#1 27078417#2 27078417#3 27082617#3 27077992#1"/>
   </vehicle>

    <vehicle id="Rand554" depart="33" arrival="113">
        <route edges="-27082628#3 -27082628#2 -27082628#1 27082628#1"/>
   </vehicle>

    <vehicle id="Rand438" depart="6" arrival="114">
        <route edges="27078417#0 28813885#3 28813885#4 28813885#5 27052071#0 27052071#1"/>
   </vehicle>

    <vehicle id="Rand229" depart="3" arrival="114">
        <route edges="28813885#2 28813885#3 27053782#4 27083324#0 27083324#1 27083324#2 27083324#3"/>
   </vehicle>

    <vehicle id="Rand112" depart="0" arrival="114">
        <route edges="27053106#1 27053106#2 27082600#0 27082600#1 27082600#2 27078417#2 27082616#3"/>
   </vehicle>

    <vehicle id="Rand141" depart="0" arrival="115">
        <route edges="27082600#2 27078417#2 27082616#3 27082616#4 27053170#3 27082617#1"/>
   </vehicle>

    <vehicle id="Rand63" depart="6" arrival="115">
        <route edges="27082629#2 27082629#3 27082629#4 27082629#5 27082625#0 27082625#1 27082625#2 27082624#1"/>
   </vehicle>

    <vehicle id="Rand128" depart="0" arrival="115">
        <route edges="27077992#3 28813885#2 28813885#3 28813885#4 28813885#5 27053106#4 -28629700#3 27052069#0"/>
   </vehicle>

    <vehicle id="Rand437" depart="0" arrival="115">
        <route edges="27082629#2 27082629#3 27082629#4 27082628#0 -27082628#0"/>
   </vehicle>

    <vehicle id="Rand575" depart="28" arrival="115">
        <route edges="27082600#3 27077992#3 28813885#2 27078417#1 27078417#2"/>
   </vehicle>

    <vehicle id="Rand517" depart="9" arrival="117">
        <route edges="27056035#1 27083337#2 27083337#3 27083337#4 -28629700#1 27056027#0 27056027#1"/>
   </vehicle>

    <vehicle id="Rand432" depart="6" arrival="120">
        <route edges="27078417#3 27082617#3 27077992#1 27077992#2 27082600#4"/>
   </vehicle>

    <vehicle id="Rand179" depart="0" arrival="121">
        <route edges="28629700#0 28629700#1 27053171#0 27053171#1"/>
   </vehicle>

    <vehicle id="Rand404" depart="0" arrival="123">
        <route edges="27639462#2 28629700#1 28629700#2 27052069#0 27052069#1"/>
   </vehicle>

    <vehicle id="Rand194" depart="1" arrival="123">
        <route edges="27082628#1 28813885#1 28813885#2 28813885#3 28813885#4 28813885#5 27053106#4 -28629700#3 -27494703#1"/>
   </vehicle>

    <vehicle id="Rand357" depart="5" arrival="124">
        <route edges="27053106#3 27053106#4 -28629700#3 -27494703#1 -27494703#0"/>
   </vehicle>

    <vehicle id="Rand213" depart="3" arrival="124">
        <route edges="27082604#3 -27082628#0 27082628#0"/>
   </vehicle>

    <vehicle id="Rand284" depart="6" arrival="125">
        <route edges="27053170#1 27082600#1 27082600#2 27082600#3 27082600#4 -27082628#2 -27082628#1 27082628#1"/>
   </vehicle>

    <vehicle id="Rand415" depart="6" arrival="127">
        <route edges="27053106#2 27053106#3 27052071#0 27052071#1 27053171#1 27154183#2"/>
   </vehicle>

    <vehicle id="Rand170" depart="0" arrival="127">
        <route edges="27053106#4 -28629700#3 -28629700#2 27053171#0 27053171#1 27053171#2 27055797#1"/>
   </vehicle>

    <vehicle id="Rand166" depart="0" arrival="128">
        <route edges="27053786#0 27052067#2 27052067#3 27052067#4 27053170#0"/>
   </vehicle>

    <vehicle id="Rand601" depart="6" arrival="129">
        <route edges="27053782#2 27082600#2 27082600#3 27082600#4 -27082628#2 -27082628#1 27082604#4"/>
   </vehicle>

    <vehicle id="Rand340" depart="6" arrival="130">
        <route edges="27052067#3 27052067#4 27053170#0 28813885#5 27053106#4 -28629700#3 28629700#3"/>
   </vehicle>

    <vehicle id="Rand199" depart="0" arrival="132">
        <route edges="27078417#0 27078417#1 27082600#3 27082600#4 27082628#3 27082616#1 27077992#2"/>
   </vehicle>

    <vehicle id="Rand286" depart="3" arrival="133">
        <route edges="28629700#1 27053171#0 27053171#1 27154183#2 27154183#3 27053106#3"/>
   </vehicle>

    <vehicle id="Rand374" depart="7" arrival="133">
        <route edges="-27082628#3 -27082628#2 28813885#1 28813885#2 28813885#3 28813885#4"/>
   </vehicle>

    <vehicle id="Rand336" depart="6" arrival="134">
        <route edges="27122600#1 27056035#0 27056035#1 27083337#2 27083337#3 27056034#2"/>
   </vehicle>

    <vehicle id="Rand248" depart="3" arrival="134">
        <route edges="27053786#1 27053786#2 27053790#2 27053790#3 27082629#3 27082629#4 27082629#5 27082625#0 27082625#1 27082625#2 27082625#3"/>
   </vehicle>

    <vehicle id="Rand33" depart="0" arrival="137">
        <route edges="28629700#3 -28629700#3 -28629700#2 -28629700#1 27056027#0 27056034#1"/>
   </vehicle>

    <vehicle id="Rand431" depart="1" arrival="139">
        <route edges="-28629700#3 27052069#0 27052069#1 27154183#3 27082600#0 27082600#1 27053782#3"/>
   </vehicle>

    <vehicle id="Rand259" depart="0" arrival="139">
        <route edges="28629700#2 -28629700#2 27053171#0 27053171#1 27053171#2 27055797#1 27055797#2"/>
   </vehicle>

    <vehicle id="Rand429" depart="6" arrival="140">
        <route edges="27083337#2 27083337#3 27083337#4 27053171#0 27053171#1 27154183#2 27154183#3 27053106#3"/>
   </vehicle>

    <vehicle id="Rand362" depart="0" arrival="140">
        <route edges="-27494703#1 27056034#3 27082629#0 27082629#1 27083324#1 27083324#2 27053786#2"/>
   </vehicle>

    <vehicle id="Rand148" depart="0" arrival="140">
        <route edges="27082604#3 -27082628#0 27082629#5 27082629#6 27082605"/>
   </vehicle>

    <vehicle id="Rand409" depart="1" arrival="141">
        <route edges="28629700#3 -28629700#3 -28629700#2 -28629700#1 27056027#0 27056034#1"/>
   </vehicle>

    <vehicle id="Rand622" depart="87" arrival="141">
        <route edges="27053791#0 27053791#1 27053791#2"/>
   </vehicle>

    <vehicle id="Rand301" depart="3" arrival="142">
        <route edges="27052071#2 27639462#2 28629700#1 28629700#2 -27494703#1 27056034#3"/>
   </vehicle>

    <vehicle id="Rand271" depart="0" arrival="143">
        <route edges="27082628#2 27082628#3 27082616#1 27082616#2 27078417#3 27082617#3 27082617#4"/>
   </vehicle>

    <vehicle id="Rand86" depart="9" arrival="143">
        <route edges="27053782#2 27082600#2 27082600#3 27082600#4 -27082628#2 28813885#1"/>
   </vehicle>

    <vehicle id="Rand625" depart="3" arrival="143">
        <route edges="27082624#2 27082624#3 27082624#4 27082624#5 27056035#0 27056035#1 27056035#2 27056035#3"/>
   </vehicle>

    <vehicle id="Rand224" depart="0" arrival="143">
        <route edges="27154183#3 27053106#3 27052071#0 27052071#1 27053171#1"/>
   </vehicle>

    <vehicle id="Rand401" depart="3" arrival="145">
        <route edges="27083337#2 27083337#3 27056034#2 27056034#3 27122600#1 27056035#0"/>
   </vehicle>

    <vehicle id="Rand96" depart="6" arrival="145">
        <route edges="27082600#1 27082600#2 27082600#3 27082600#4 -27082628#2 -27082628#1 27082604#4 27082604#5"/>
   </vehicle>

    <vehicle id="Rand184" depart="0" arrival="145">
        <route edges="27082604#2 27082604#3 27082628#1 28813885#1 28813885#2 27078417#1 27078417#2"/>
   </vehicle>

    <vehicle id="Rand525" depart="1" arrival="145">
        <route edges="27082628#3 -27082628#3 -27082628#2 -27082628#1 -27082628#0 27082629#5 27082625#0 27082625#1"/>
   </vehicle>

    <vehicle id="Rand295" depart="3" arrival="145">
        <route edges="27052067#2 27082624#5 27056035#0 27056035#1 27083337#2 27083337#3 27083337#4 -28629700#1"/>
   </vehicle>

    <vehicle id="Rand209" depart="0" arrival="146">
        <route edges="27082616#1 27077992#2 27077992#3 28813885#2 28813885#3 28813885#4"/>
   </vehicle>

    <vehicle id="Rand471" depart="1" arrival="146">
        <route edges="27082628#0 27082628#1 27082628#2 27082628#3 27082628#4 27082617#5"/>
   </vehicle>

    <vehicle id="Rand394" depart="6" arrival="146">
        <route edges="-27082628#5 -27082628#4"/>
   </vehicle>

    <vehicle id="Rand559" depart="44" arrival="148">
        <route edges="27053170#1 27082600#1 27082600#2 27082600#3 27077992#3 27077992#4"/>
   </vehicle>

    <vehicle id="Rand171" depart="0" arrival="148">
        <route edges="-27082628#4 -27082628#3 -27082628#2 28813885#1 28813885#2 28813885#3 27053782#4 27083324#0"/>
   </vehicle>

    <vehicle id="Rand542" depart="7" arrival="150">
        <route edges="-28629700#2 27053171#0 27053171#1 27053171#2 27055797#1 27639462#0 27639462#1"/>
   </vehicle>

    <vehicle id="Rand237" depart="0" arrival="151">
        <route edges="27053790#3 27053790#4 27078417#0 28813885#3 28813885#4 27053170#1 27082600#1 27053782#3"/>
   </vehicle>

    <vehicle id="Rand349" depart="0" arrival="151">
        <route edges="27053106#0 27053106#1 27053106#2 27082600#0"/>
   </vehicle>

    <vehicle id="Rand164" depart="0" arrival="151">
        <route edges="27053791#2 27082624#2 27082624#3 27083324#2 27083324#3 27083324#4"/>
   </vehicle>

    <vehicle id="Rand172" depart="0" arrival="151">
        <route edges="27082616#5 27053106#2 27053106#3 27053106#4 -28629700#3 -27494703#1"/>
   </vehicle>

    <vehicle id="Rand0" depart="0" arrival="152">
        <route edges="27053782#1 27053782#2 27082600#2 27082600#3 27082600#4 27082628#3 27082628#4"/>
   </vehicle>

    <vehicle id="Rand603" depart="3" arrival="153">
        <route edges="28813885#3 27053782#4 27083324#0 27083324#1 27083324#2 27083324#3 28408742#3"/>
   </vehicle>

    <vehicle id="Rand311" depart="3" arrival="153">
        <route edges="27082616#1 27077992#2 27077992#3 28813885#2 27078417#1"/>
   </vehicle>

    <vehicle id="Rand380" depart="6" arrival="155">
        <route edges="27082629#3 27082629#4 27082628#0 27082628#1 28813885#1 28813885#2 28813885#3 27053782#4 27083324#0 27082629#2"/>
   </vehicle>

    <vehicle id="Rand50" depart="3" arrival="156">
        <route edges="27082600#2 27082600#3 27077992#3 28813885#2 28813885#3 27053782#4 27083324#0 27082629#2"/>
   </vehicle>

    <vehicle id="Rand298" depart="0" arrival="156">
        <route edges="27053790#1 27053790#2 27053790#3 27082629#3 27082629#4"/>
   </vehicle>

    <vehicle id="Rand577" depart="4" arrival="157">
        <route edges="28629700#2 -28629700#2 27053171#0 27053171#1 27053171#2 27055797#1 27639462#0 27154183#1"/>
   </vehicle>

    <vehicle id="Rand231" depart="3" arrival="158">
        <route edges="27053106#3 27052071#0 27052069#1 27154183#3 27082600#0 27053170#2 27053170#3 27082617#1"/>
   </vehicle>

    <vehicle id="Rand261" depart="0" arrival="159">
        <route edges="27083337#4 28629700#2 28629700#3 27122600#0 27082629#0"/>
   </vehicle>

    <vehicle id="Rand497" depart="6" arrival="160">
        <route edges="27052069#1 27154183#3 27082600#0 27082600#1 27082600#2 27078417#2 27078417#3 27078417#4"/>
   </vehicle>

    <vehicle id="Rand413" depart="6" arrival="161">
        <route edges="27082604#3 -27082628#0 27082629#5 27082625#0 27486763#1 27486763#0+27486763#2"/>
   </vehicle>

    <vehicle id="Rand157" depart="0" arrival="161">
        <route edges="27082624#1 27082624#2 27053790#3 27082629#3 27082629#4 27082628#0 27082628#1 -27082628#1"/>
   </vehicle>

    <vehicle id="Rand488" depart="16" arrival="161">
        <route edges="27053791#3 27053791#4 28408742#1"/>
   </vehicle>

    <vehicle id="Rand607" depart="3" arrival="162">
        <route edges="27077992#1 27077992#2 27077992#3 28813885#2 28813885#3 27053782#4 27083324#0 27083324#1"/>
   </vehicle>

    <vehicle id="Rand68" depart="3" arrival="164">
        <route edges="27056027#0 27056034#1 27056034#2"/>
   </vehicle>

    <vehicle id="Rand220" depart="3" arrival="165">
        <route edges="27052069#0 27052069#1 27154183#3 27082600#0 27082600#1 27082600#2 27078417#2 27078417#3"/>
   </vehicle>

    <vehicle id="Rand321" depart="3" arrival="166">
        <route edges="-28629700#2 -28629700#1 27056027#0 27056034#1 27083337#4"/>
   </vehicle>

    <vehicle id="Rand114" depart="0" arrival="167">
        <route edges="27083324#1 27083324#2 27053786#2 27053786#3 27053791#4 28408742#1"/>
   </vehicle>

    <vehicle id="Rand214" depart="2" arrival="167">
        <route edges="27056035#0 27056035#1 27083337#2 27083337#3 27083337#4 27053171#0 27052071#2 27639462#2"/>
   </vehicle>

    <vehicle id="Rand287" depart="6" arrival="169">
        <route edges="28629700#0 28629700#1 27053171#0 27053171#1 27053171#2 27055797#1 27639462#0 27154183#1"/>
   </vehicle>

    <vehicle id="Rand547" depart="12" arrival="171">
        <route edges="-27082628#4 -27082628#3 -27082628#2 28813885#1 28813885#2 27078417#1"/>
   </vehicle>

    <vehicle id="Rand142" depart="0" arrival="171">
        <route edges="27082628#0 -27082628#0 27082629#5 27082625#0 27082625#1 27082625#2 27082624#1 27082624#2 27053790#3 27082629#3"/>
   </vehicle>

    <vehicle id="Rand351" depart="0" arrival="172">
        <route edges="-28629700#3 28629700#3 27122600#0 27122600#1 27122600#2 27053786#0 27053786#1"/>
   </vehicle>

    <vehicle id="Rand593" depart="1" arrival="173">
        <route edges="-27082628#1 27082628#1 28813885#1 28813885#2 28813885#3 28813885#4 27053170#1 27053170#2 27053170#3 27053170#4"/>
   </vehicle>

    <vehicle id="Rand590" depart="3" arrival="174">
        <route edges="27486763#0+27486763#2 27082625#1 27082625#2 27082624#1 27082624#2 27053790#3 27082629#3 27082629#4 27082628#0 27082628#1 28813885#1 28813885#2"/>
   </vehicle>

    <vehicle id="Rand528" depart="20" arrival="175">
        <route edges="27082604#3 27082628#1 28813885#1 28813885#2 28813885#3 27053782#4 27082604#1 27082604#2"/>
   </vehicle>

    <vehicle id="Rand100" depart="0" arrival="176">
        <route edges="27082629#3 27082629#4 27082628#0 27082628#1 28813885#1 28813885#2 28813885#3 28813885#4 27053170#1 27053170#2 27053170#3 27053170#4"/>
   </vehicle>

    <vehicle id="Rand433" depart="6" arrival="176">
        <route edges="27056035#0 27056035#1 27056035#2 27056027#2 27056036#1 27083337#1"/>
   </vehicle>

    <vehicle id="Rand15" depart="0" arrival="176">
        <route edges="27494703#1 28629700#3 27122600#0 27122600#1 27122600#2 27053786#0 27052067#2"/>
   </vehicle>

    <vehicle id="Rand341" depart="12" arrival="177">
        <route edges="27082604#1 27078417#0 28813885#3 27053782#4 27083324#0 27083324#1 27082624#4"/>
   </vehicle>

    <vehicle id="Rand521" depart="0" arrival="178">
        <route edges="27053790#2 27082624#3 27082624#4 27082624#5 27056035#0 27056035#1 27056035#2 27056027#2 27056036#1 27056036#2"/>
   </vehicle>

    <vehicle id="Rand159" depart="3" arrival="179">
        <route edges="27639462#0 27154183#1 27154183#2 27154183#3 27082600#0 27082600#1 27082600#2"/>
   </vehicle>

    <vehicle id="Rand290" depart="6" arrival="180">
        <route edges="27082600#4 -27082628#2 28813885#1 28813885#2 28813885#3 28813885#4 28813885#5 27052071#0 27052071#1 27052071#2 27639462#2"/>
   </vehicle>

    <vehicle id="Rand305" depart="3" arrival="181">
        <route edges="-27082628#5 -27082628#4 27082616#1 27082616#2"/>
   </vehicle>

    <vehicle id="Rand282" depart="3" arrival="182">
        <route edges="27052071#0 27052069#1 27154183#3 27082600#0 27082600#1 27082600#2 27078417#2 27078417#3 27082617#3 27077992#1"/>
   </vehicle>

    <vehicle id="Rand60" depart="3" arrival="182">
        <route edges="27082604#0 27083324#0 27083324#1 27082624#4 27082624#5 27056035#0 27056035#1"/>
   </vehicle>

    <vehicle id="Rand377" depart="6" arrival="184">
        <route edges="27053790#3 27082629#3 27082629#4 27082628#0 27082628#1 27082628#2 27082628#3 -27082628#3"/>
   </vehicle>

    <vehicle id="Rand524" depart="29" arrival="184">
        <route edges="27052067#3 27052067#4 27053170#0 27053170#1 27082600#1 27053782#3"/>
   </vehicle>

    <vehicle id="Rand111" depart="0" arrival="185">
        <route edges="27052067#2 27052067#3 27082629#1 27082629#2 27082629#3 27082629#4 27082629#5"/>
   </vehicle>

    <vehicle id="Rand27" depart="3" arrival="185">
        <route edges="27052067#3 27082629#1 27082629#2 27053790#4 27078417#0 27078417#1"/>
   </vehicle>

    <vehicle id="Rand565" depart="3" arrival="185">
        <route edges="27077992#3 27077992#4 27082604#3 -27082628#0"/>
   </vehicle>

    <vehicle id="Rand98" depart="17" arrival="186">
        <route edges="27082625#0 27082625#1 27082625#2 27082624#1 27082624#2 27053790#3 27082629#3 27082629#4"/>
   </vehicle>

    <vehicle id="Rand102" depart="0" arrival="187">
        <route edges="27053786#2 27053790#2 27053790#3 27082629#3 27082629#4 27082628#0 27082628#1 27082628#2 27082628#3 27082628#4 27082617#5"/>
   </vehicle>

    <vehicle id="Rand310" depart="3" arrival="187">
        <route edges="27052071#1 27053171#1 27154183#2 27154183#3 27082600#0 27082600#1 27082600#2 27082600#3"/>
   </vehicle>

    <vehicle id="Rand337" depart="3" arrival="187">
        <route edges="27053790#3 27053790#4 27078417#0 28813885#3 28813885#4 28813885#5 27052071#0 27052071#1 27052071#2"/>
   </vehicle>

    <vehicle id="Rand12" depart="0" arrival="188">
        <route edges="27052067#4 27082604#0 27083324#0 27082629#2 27082629#3 27082629#4 27082629#5 27082625#0 27082625#1 27486761"/>
   </vehicle>

    <vehicle id="Rand36" depart="0" arrival="188">
        <route edges="27053171#0 27052071#2 27639462#2 27056027#0 27056027#1 27056035#3"/>
   </vehicle>

    <vehicle id="Rand82" depart="18" arrival="189">
        <route edges="27056035#0 27056035#1 27083337#2 27083337#3 27083337#4 -28629700#1 28629700#1"/>
   </vehicle>

    <vehicle id="Rand129" depart="3" arrival="189">
        <route edges="27053782#3 27053782#4 27083324#0 27082629#2 27053790#4"/>
   </vehicle>

    <vehicle id="Rand597" depart="3" arrival="189">
        <route edges="27082629#0 27082629#1 27083324#1 27083324#2 27053786#2 27053786#3"/>
   </vehicle>

    <vehicle id="Rand137" depart="3" arrival="190">
        <route edges="27053782#1 27053782#2 27082600#2 27082600#3 27082600#4 -27082628#2 28813885#1"/>
   </vehicle>

    <vehicle id="Rand599" depart="0" arrival="191">
        <route edges="28813885#5 27053106#4 27122600#0 27082629#0 27082629#1 27083324#1 27083324#2 27053786#2 27053786#3"/>
   </vehicle>

    <vehicle id="Rand14" depart="0" arrival="191">
        <route edges="27082600#4 -27082628#2 28813885#1 28813885#2 28813885#3 27053782#4 27083324#0 27082629#2 27082629#3"/>
   </vehicle>

    <vehicle id="Rand66" depart="4" arrival="192">
        <route edges="27082628#0 27082628#1 28813885#1 28813885#2 28813885#3 28813885#4 28813885#5 27053106#4 -28629700#3 -28629700#2 -28629700#1"/>
   </vehicle>

    <vehicle id="Rand343" depart="6" arrival="193">
        <route edges="27053782#1 27053782#2 27082600#2 27082600#3 27082600#4 -27082628#2 28813885#1"/>
   </vehicle>

    <vehicle id="Rand260" depart="4" arrival="193">
        <route edges="-27082628#0 27082628#0 27082628#1 28813885#1 28813885#2 27078417#1 27078417#2 27082616#3 27053782#2"/>
   </vehicle>

    <vehicle id="Rand550" depart="3" arrival="197">
        <route edges="27082629#2 27053790#4 27078417#0 27078417#1 27078417#2 27078417#3 27078417#4"/>
   </vehicle>

    <vehicle id="Rand197" depart="0" arrival="198">
        <route edges="27082617#3 27077992#1 27077992#2 27077992#3 28813885#2 28813885#3 28813885#4 27053170#1"/>
   </vehicle>

    <vehicle id="Rand263" depart="6" arrival="199">
        <route edges="27494703#1 27052069#0 27052069#1 27154183#3 27082600#0 27053170#2 27053170#3"/>
   </vehicle>

    <vehicle id="Rand34" depart="8" arrival="200">
        <route edges="27082625#0 27082625#1 27082625#2 27082624#1 27082624#2 27082624#3 27082624#4 27052067#3 27082629#1 27083324#1"/>
   </vehicle>

    <vehicle id="Rand539" depart="9" arrival="200">
        <route edges="27056034#2 27494703#1 -28629700#2 27053171#0 27052071#2"/>
   </vehicle>

    <vehicle id="Rand400" depart="0" arrival="200">
        <route edges="27082628#3 -27082628#3 -27082628#2 28813885#1"/>
   </vehicle>

    <vehicle id="Rand527" depart="1" arrival="200">
        <route edges="28629700#2 28629700#3 27122600#0 27082629#0 27082629#1 27083324#1 27083324#2 27083324#3 28408742#3"/>
   </vehicle>

    <vehicle id="Rand320" depart="6" arrival="201">
        <route edges="27082617#3 27077992#1 27077992#2 27077992#3 28813885#2 28813885#3 28813885#4 28813885#5"/>
   </vehicle>

    <vehicle id="Rand406" depart="3" arrival="201">
        <route edges="27053171#0 27052071#2 27639462#2 28629700#1 28629700#2 28629700#3"/>
   </vehicle>

    <vehicle id="Rand399" depart="3" arrival="201">
        <route edges="27122600#2 27053786#0 27052067#2 27082624#5 27056035#0 27494703#0"/>
   </vehicle>

    <vehicle id="Rand329" depart="9" arrival="201">
        <route edges="27082600#4 -27082628#2 28813885#1 28813885#2 28813885#3 28813885#4 28813885#5 27052071#0 27052071#1 27053171#1 27053171#2 27055797#1 27055797#2"/>
   </vehicle>

    <vehicle id="Rand264" depart="3" arrival="202">
        <route edges="27083337#1 27083337#2 27083337#3 27083337#4 -28629700#1 27056027#0 27056034#1"/>
   </vehicle>

    <vehicle id="Rand49" depart="12" arrival="202">
        <route edges="27052067#3 27082629#1 27082629#2 27082629#3 27082629#4 27082629#5 27082625#0 27082625#1 27082625#2 27082625#3"/>
   </vehicle>

    <vehicle id="Rand236" depart="3" arrival="202">
        <route edges="27083324#0 27082629#2 27082629#3 27082629#4 27082628#0 27082604#4"/>
   </vehicle>

    <vehicle id="Rand563" depart="7" arrival="202">
        <route edges="27077992#2 27077992#3 28813885#2 28813885#3 28813885#4 27053170#1 27053170#2 27082616#5 27053106#2"/>
   </vehicle>

    <vehicle id="Rand496" depart="0" arrival="204">