<?xml version="1.0"?>

<!-- generated on Mon Jun 14 19:57:55 2010 by SUMO sumo Version 0.11.1
<configuration>

    <input>
        <net-file value="condor/tl2/bahia-rivadavia/40/rivadavia.net.xml"/>
        <route-files value="condor/tl2/bahia-rivadavia/40/rivadavia.500.rou.xml"/>
        <additional-files value="condor/tl2/bahia-rivadavia/40/tl-logic.add.xml"/>
    </input>

    <output>
        <emissions-output value="condor/tl2/bahia-rivadavia/40/output-emissions.xml"/>
        <tripinfo-output value="condor/tl2/bahia-rivadavia/40/output-tripinfos.xml"/>
        <vehroute-output value="condor/tl2/bahia-rivadavia/40/output-vehroutes.xml"/>
    </output>

    <time>
        <begin value="0"/>
        <end value="500"/>
    </time>

    <processing>
        <route-steps value="-1"/>
        <time-to-teleport value="-1"/>
    </processing>

    <report>
        <print-options value="false"/>
        <suppress-warnings value="true"/>
    </report>

    <random_number>
        <srand value="23423"/>
    </random_number>

    <gui_only>
        <gui-settings-file value=""/>
    </gui_only>

</configuration>
-->

<emissions>
    <emission-state time="0" loaded="500" emitted="152" running="152" waiting="348" ended="0" meanWaitingTime="0.00" meanTravelTime="-1.00" duration="0" />
    <emission-state time="1" loaded="500" emitted="164" running="164" waiting="336" ended="0" meanWaitingTime="0.07" meanTravelTime="-1.00" duration="6" />
    <emission-state time="2" loaded="500" emitted="165" running="165" waiting="335" ended="0" meanWaitingTime="0.08" meanTravelTime="-1.00" duration="4" />
    <emission-state time="3" loaded="500" emitted="284" running="284" waiting="216" ended="0" meanWaitingTime="1.31" meanTravelTime="-1.00" duration="3" />
    <emission-state time="4" loaded="500" emitted="296" running="294" waiting="204" ended="2" meanWaitingTime="1.42" meanTravelTime="1.00" duration="5" />
    <emission-state time="5" loaded="500" emitted="298" running="296" waiting="202" ended="2" meanWaitingTime="1.44" meanTravelTime="1.00" duration="3" />
    <emission-state time="6" loaded="500" emitted="380" running="378" waiting="120" ended="2" meanWaitingTime="2.42" meanTravelTime="1.00" duration="3" />
    <emission-state time="7" loaded="500" emitted="385" running="383" waiting="115" ended="2" meanWaitingTime="2.48" meanTravelTime="1.00" duration="3" />
    <emission-state time="8" loaded="500" emitted="386" running="384" waiting="114" ended="2" meanWaitingTime="2.50" meanTravelTime="1.00" duration="2" />
    <emission-state time="9" loaded="500" emitted="442" running="440" waiting="58" ended="2" meanWaitingTime="3.32" meanTravelTime="1.00" duration="2" />
    <emission-state time="10" loaded="500" emitted="442" running="439" waiting="58" ended="3" meanWaitingTime="3.32" meanTravelTime="1.00" duration="2" />
    <emission-state time="11" loaded="500" emitted="442" running="439" waiting="58" ended="3" meanWaitingTime="3.32" meanTravelTime="1.00" duration="2" />
    <emission-state time="12" loaded="500" emitted="457" running="454" waiting="43" ended="3" meanWaitingTime="3.61" meanTravelTime="1.00" duration="1" />
    <emission-state time="13" loaded="500" emitted="457" running="454" waiting="43" ended="3" meanWaitingTime="3.61" meanTravelTime="1.00" duration="2" />
    <emission-state time="14" loaded="500" emitted="458" running="455" waiting="42" ended="3" meanWaitingTime="3.63" meanTravelTime="1.00" duration="2" />
    <emission-state time="15" loaded="500" emitted="462" running="459" waiting="38" ended="3" meanWaitingTime="3.73" meanTravelTime="1.00" duration="1" />
    <emission-state time="16" loaded="500" emitted="463" running="460" waiting="37" ended="3" meanWaitingTime="3.75" meanTravelTime="1.00" duration="2" />
    <emission-state time="17" loaded="500" emitted="465" running="461" waiting="35" ended="4" meanWaitingTime="3.81" meanTravelTime="5.00" duration="1" />
    <emission-state time="18" loaded="500" emitted="467" running="463" waiting="33" ended="4" meanWaitingTime="3.87" meanTravelTime="5.00" duration="2" />
    <emission-state time="19" loaded="500" emitted="468" running="464" waiting="32" ended="4" meanWaitingTime="3.90" meanTravelTime="5.00" duration="2" />
    <emission-state time="20" loaded="500" emitted="473" running="469" waiting="27" ended="4" meanWaitingTime="4.07" meanTravelTime="5.00" duration="2" />
    <emission-state time="21" loaded="500" emitted="475" running="470" waiting="25" ended="5" meanWaitingTime="4.15" meanTravelTime="8.20" duration="1" />
    <emission-state time="22" loaded="500" emitted="476" running="471" waiting="24" ended="5" meanWaitingTime="4.18" meanTravelTime="8.20" duration="2" />
    <emission-state time="23" loaded="500" emitted="478" running="473" waiting="22" ended="5" meanWaitingTime="4.26" meanTravelTime="8.20" duration="2" />
    <emission-state time="24" loaded="500" emitted="478" running="473" waiting="22" ended="5" meanWaitingTime="4.26" meanTravelTime="8.20" duration="1" />
    <emission-state time="25" loaded="500" emitted="478" running="473" waiting="22" ended="5" meanWaitingTime="4.26" meanTravelTime="8.20" duration="2" />
    <emission-state time="26" loaded="500" emitted="480" running="474" waiting="20" ended="6" meanWaitingTime="4.35" meanTravelTime="11.17" duration="2" />
    <emission-state time="27" loaded="500" emitted="480" running="474" waiting="20" ended="6" meanWaitingTime="4.35" meanTravelTime="11.17" duration="1" />
    <emission-state time="28" loaded="500" emitted="483" running="477" waiting="17" ended="6" meanWaitingTime="4.50" meanTravelTime="11.17" duration="2" />
    <emission-state time="29" loaded="500" emitted="484" running="478" waiting="16" ended="6" meanWaitingTime="4.55" meanTravelTime="11.17" duration="1" />
    <emission-state time="30" loaded="500" emitted="484" running="477" waiting="16" ended="7" meanWaitingTime="4.55" meanTravelTime="12.57" duration="2" />
    <emission-state time="31" loaded="500" emitted="485" running="478" waiting="15" ended="7" meanWaitingTime="4.60" meanTravelTime="12.57" duration="1" />
    <emission-state time="32" loaded="500" emitted="486" running="479" waiting="14" ended="7" meanWaitingTime="4.66" meanTravelTime="12.57" duration="1" />
    <emission-state time="33" loaded="500" emitted="488" running="481" waiting="12" ended="7" meanWaitingTime="4.78" meanTravelTime="12.57" duration="2" />
    <emission-state time="34" loaded="500" emitted="489" running="482" waiting="11" ended="7" meanWaitingTime="4.84" meanTravelTime="12.57" duration="1" />
    <emission-state time="35" loaded="500" emitted="489" running="482" waiting="11" ended="7" meanWaitingTime="4.84" meanTravelTime="12.57" duration="2" />
    <emission-state time="36" loaded="500" emitted="490" running="483" waiting="10" ended="7" meanWaitingTime="4.90" meanTravelTime="12.57" duration="1" />
    <emission-state time="37" loaded="500" emitted="491" running="484" waiting="9" ended="7" meanWaitingTime="4.97" meanTravelTime="12.57" duration="1" />
    <emission-state time="38" loaded="500" emitted="491" running="484" waiting="9" ended="7" meanWaitingTime="4.97" meanTravelTime="12.57" duration="1" />
    <emission-state time="39" loaded="500" emitted="491" running="483" waiting="9" ended="8" meanWaitingTime="4.97" meanTravelTime="15.88" duration="2" />
    <emission-state time="40" loaded="500" emitted="491" running="483" waiting="9" ended="8" meanWaitingTime="4.97" meanTravelTime="15.88" duration="1" />
    <emission-state time="41" loaded="500" emitted="492" running="484" waiting="8" ended="8" meanWaitingTime="5.04" meanTravelTime="15.88" duration="1" />
    <emission-state time="42" loaded="500" emitted="492" running="484" waiting="8" ended="8" meanWaitingTime="5.04" meanTravelTime="15.88" duration="1" />
    <emission-state time="43" loaded="500" emitted="492" running="484" waiting="8" ended="8" meanWaitingTime="5.04" meanTravelTime="15.88" duration="2" />
    <emission-state time="44" loaded="500" emitted="494" running="486" waiting="6" ended="8" meanWaitingTime="5.20" meanTravelTime="15.88" duration="1" />
    <emission-state time="45" loaded="500" emitted="494" running="485" waiting="6" ended="9" meanWaitingTime="5.20" meanTravelTime="19.11" duration="1" />
    <emission-state time="46" loaded="500" emitted="494" running="484" waiting="6" ended="10" meanWaitingTime="5.20" meanTravelTime="21.80" duration="1" />
    <emission-state time="47" loaded="500" emitted="494" running="484" waiting="6" ended="10" meanWaitingTime="5.20" meanTravelTime="21.80" duration="2" />
    <emission-state time="48" loaded="500" emitted="494" running="482" waiting="6" ended="12" meanWaitingTime="5.20" meanTravelTime="24.42" duration="1" />
    <emission-state time="49" loaded="500" emitted="494" running="482" waiting="6" ended="12" meanWaitingTime="5.20" meanTravelTime="24.42" duration="1" />
    <emission-state time="50" loaded="500" emitted="494" running="480" waiting="6" ended="14" meanWaitingTime="5.20" meanTravelTime="27.43" duration="1" />
    <emission-state time="51" loaded="500" emitted="494" running="479" waiting="6" ended="15" meanWaitingTime="5.20" meanTravelTime="28.80" duration="2" />
    <emission-state time="52" loaded="500" emitted="494" running="479" waiting="6" ended="15" meanWaitingTime="5.20" meanTravelTime="28.80" duration="1" />
    <emission-state time="53" loaded="500" emitted="494" running="477" waiting="6" ended="17" meanWaitingTime="5.20" meanTravelTime="31.12" duration="1" />
    <emission-state time="54" loaded="500" emitted="494" running="477" waiting="6" ended="17" meanWaitingTime="5.20" meanTravelTime="31.12" duration="1" />
    <emission-state time="55" loaded="500" emitted="494" running="475" waiting="6" ended="19" meanWaitingTime="5.20" meanTravelTime="33.32" duration="2" />
    <emission-state time="56" loaded="500" emitted="494" running="475" waiting="6" ended="19" meanWaitingTime="5.20" meanTravelTime="33.32" duration="1" />
    <emission-state time="57" loaded="500" emitted="494" running="473" waiting="6" ended="21" meanWaitingTime="5.20" meanTravelTime="35.00" duration="1" />
    <emission-state time="58" loaded="500" emitted="494" running="473" waiting="6" ended="21" meanWaitingTime="5.20" meanTravelTime="35.00" duration="1" />
    <emission-state time="59" loaded="500" emitted="494" running="472" waiting="6" ended="22" meanWaitingTime="5.20" meanTravelTime="35.95" duration="1" />
    <emission-state time="60" loaded="500" emitted="494" running="471" waiting="6" ended="23" meanWaitingTime="5.20" meanTravelTime="37.00" duration="1" />
    <emission-state time="61" loaded="500" emitted="494" running="471" waiting="6" ended="23" meanWaitingTime="5.20" meanTravelTime="37.00" duration="2" />
    <emission-state time="62" loaded="500" emitted="494" running="471" waiting="6" ended="23" meanWaitingTime="5.20" meanTravelTime="37.00" duration="1" />
    <emission-state time="63" loaded="500" emitted="494" running="470" waiting="6" ended="24" meanWaitingTime="5.20" meanTravelTime="37.71" duration="1" />
    <emission-state time="64" loaded="500" emitted="494" running="469" waiting="6" ended="25" meanWaitingTime="5.20" meanTravelTime="38.60" duration="1" />
    <emission-state time="65" loaded="500" emitted="495" running="469" waiting="5" ended="26" meanWaitingTime="5.32" meanTravelTime="39.42" duration="1" />
    <emission-state time="66" loaded="500" emitted="495" running="469" waiting="5" ended="26" meanWaitingTime="5.32" meanTravelTime="39.42" duration="2" />
    <emission-state time="67" loaded="500" emitted="495" running="469" waiting="5" ended="26" meanWaitingTime="5.32" meanTravelTime="39.42" duration="1" />
    <emission-state time="68" loaded="500" emitted="495" running="469" waiting="5" ended="26" meanWaitingTime="5.32" meanTravelTime="39.42" duration="1" />
    <emission-state time="69" loaded="500" emitted="495" running="469" waiting="5" ended="26" meanWaitingTime="5.32" meanTravelTime="39.42" duration="1" />
    <emission-state time="70" loaded="500" emitted="495" running="469" waiting="5" ended="26" meanWaitingTime="5.32" meanTravelTime="39.42" duration="1" />
    <emission-state time="71" loaded="500" emitted="495" running="468" waiting="5" ended="27" meanWaitingTime="5.32" meanTravelTime="40.48" duration="1" />
    <emission-state time="72" loaded="500" emitted="495" running="468" waiting="5" ended="27" meanWaitingTime="5.32" meanTravelTime="40.48" duration="1" />
    <emission-state time="73" loaded="500" emitted="495" running="467" waiting="5" ended="28" meanWaitingTime="5.32" meanTravelTime="41.43" duration="1" />
    <emission-state time="74" loaded="500" emitted="495" running="467" waiting="5" ended="28" meanWaitingTime="5.32" meanTravelTime="41.43" duration="1" />
    <emission-state time="75" loaded="500" emitted="495" running="467" waiting="5" ended="28" meanWaitingTime="5.32" meanTravelTime="41.43" duration="2" />
    <emission-state time="76" loaded="500" emitted="495" running="466" waiting="5" ended="29" meanWaitingTime="5.32" meanTravelTime="42.48" duration="1" />
    <emission-state time="77" loaded="500" emitted="495" running="465" waiting="5" ended="30" meanWaitingTime="5.32" meanTravelTime="43.53" duration="1" />
    <emission-state time="78" loaded="500" emitted="495" running="464" waiting="5" ended="31" meanWaitingTime="5.32" meanTravelTime="44.55" duration="1" />
    <emission-state time="79" loaded="500" emitted="495" running="464" waiting="5" ended="31" meanWaitingTime="5.32" meanTravelTime="44.55" duration="1" />
    <emission-state time="80" loaded="500" emitted="495" running="463" waiting="5" ended="32" meanWaitingTime="5.32" meanTravelTime="45.66" duration="1" />
    <emission-state time="81" loaded="500" emitted="495" running="462" waiting="5" ended="33" meanWaitingTime="5.32" meanTravelTime="46.73" duration="1" />
    <emission-state time="82" loaded="500" emitted="495" running="462" waiting="5" ended="33" meanWaitingTime="5.32" meanTravelTime="46.73" duration="1" />
    <emission-state time="83" loaded="500" emitted="495" running="462" waiting="5" ended="33" meanWaitingTime="5.32" meanTravelTime="46.73" duration="1" />
    <emission-state time="84" loaded="500" emitted="495" running="462" waiting="5" ended="33" meanWaitingTime="5.32" meanTravelTime="46.73" duration="1" />
    <emission-state time="85" loaded="500" emitted="495" running="462" waiting="5" ended="33" meanWaitingTime="5.32" meanTravelTime="46.73" duration="1" />
    <emission-state time="86" loaded="500" emitted="495" running="462" waiting="5" ended="33" meanWaitingTime="5.32" meanTravelTime="46.73" duration="1" />
    <emission-state time="87" loaded="500" emitted="496" running="462" waiting="4" ended="34" meanWaitingTime="5.48" meanTravelTime="47.74" duration="2" />
    <emission-state time="88" loaded="500" emitted="496" running="461" waiting="4" ended="35" meanWaitingTime="5.48" meanTravelTime="48.89" duration="1" />
    <emission-state time="89" loaded="500" emitted="496" running="461" waiting="4" ended="35" meanWaitingTime="5.48" meanTravelTime="48.89" duration="1" />
    <emission-state time="90" loaded="500" emitted="496" running="460" waiting="4" ended="36" meanWaitingTime="5.48" meanTravelTime="50.03" duration="1" />
    <emission-state time="91" loaded="500" emitted="496" running="459" waiting="4" ended="37" meanWaitingTime="5.48" meanTravelTime="51.11" duration="1" />
    <emission-state time="92" loaded="500" emitted="496" running="459" waiting="4" ended="37" meanWaitingTime="5.48" meanTravelTime="51.11" duration="1" />
    <emission-state time="93" loaded="500" emitted="496" running="459" waiting="4" ended="37" meanWaitingTime="5.48" meanTravelTime="51.11" duration="1" />
    <emission-state time="94" loaded="500" emitted="496" running="459" waiting="4" ended="37" meanWaitingTime="5.48" meanTravelTime="51.11" duration="2" />
    <emission-state time="95" loaded="500" emitted="496" running="459" waiting="4" ended="37" meanWaitingTime="5.48" meanTravelTime="51.11" duration="1" />
    <emission-state time="96" loaded="500" emitted="496" running="459" waiting="4" ended="37" meanWaitingTime="5.48" meanTravelTime="51.11" duration="1" />
    <emission-state time="97" loaded="500" emitted="496" running="458" waiting="4" ended="38" meanWaitingTime="5.48" meanTravelTime="52.24" duration="1" />
    <emission-state time="98" loaded="500" emitted="496" running="458" waiting="4" ended="38" meanWaitingTime="5.48" meanTravelTime="52.24" duration="1" />
    <emission-state time="99" loaded="500" emitted="496" running="457" waiting="4" ended="39" meanWaitingTime="5.48" meanTravelTime="53.21" duration="1" />
    <emission-state time="100" loaded="500" emitted="496" running="455" waiting="4" ended="41" meanWaitingTime="5.48" meanTravelTime="55.34" duration="1" />
    <emission-state time="101" loaded="500" emitted="497" running="455" waiting="3" ended="42" meanWaitingTime="5.67" meanTravelTime="56.29" duration="1" />
    <emission-state time="102" loaded="500" emitted="497" running="452" waiting="3" ended="45" meanWaitingTime="5.67" meanTravelTime="59.00" duration="2" />
    <emission-state time="103" loaded="500" emitted="497" running="450" waiting="3" ended="47" meanWaitingTime="5.67" meanTravelTime="60.68" duration="1" />
    <emission-state time="104" loaded="500" emitted="497" running="448" waiting="3" ended="49" meanWaitingTime="5.67" meanTravelTime="62.45" duration="1" />
    <emission-state time="105" loaded="500" emitted="497" running="446" waiting="3" ended="51" meanWaitingTime="5.67" meanTravelTime="63.71" duration="1" />
    <emission-state time="106" loaded="500" emitted="497" running="446" waiting="3" ended="51" meanWaitingTime="5.67" meanTravelTime="63.71" duration="1" />
    <emission-state time="107" loaded="500" emitted="497" running="446" waiting="3" ended="51" meanWaitingTime="5.67" meanTravelTime="63.71" duration="2" />
    <emission-state time="108" loaded="500" emitted="498" running="447" waiting="2" ended="51" meanWaitingTime="5.88" meanTravelTime="63.71" duration="1" />
    <emission-state time="109" loaded="500" emitted="498" running="447" waiting="2" ended="51" meanWaitingTime="5.88" meanTravelTime="63.71" duration="1" />
    <emission-state time="110" loaded="500" emitted="498" running="446" waiting="2" ended="52" meanWaitingTime="5.88" meanTravelTime="64.60" duration="1" />
    <emission-state time="111" loaded="500" emitted="499" running="447" waiting="1" ended="52" meanWaitingTime="6.09" meanTravelTime="64.60" duration="1" />
    <emission-state time="112" loaded="500" emitted="499" running="446" waiting="1" ended="53" meanWaitingTime="6.09" meanTravelTime="65.49" duration="1" />
    <emission-state time="113" loaded="500" emitted="499" running="445" waiting="1" ended="54" meanWaitingTime="6.09" meanTravelTime="65.76" duration="1" />
    <emission-state time="114" loaded="500" emitted="499" running="442" waiting="1" ended="57" meanWaitingTime="6.09" meanTravelTime="68.14" duration="2" />
    <emission-state time="115" loaded="500" emitted="499" running="437" waiting="1" ended="62" meanWaitingTime="6.09" meanTravelTime="71.37" duration="1" />
    <emission-state time="116" loaded="500" emitted="499" running="437" waiting="1" ended="62" meanWaitingTime="6.09" meanTravelTime="71.37" duration="1" />
    <emission-state time="117" loaded="500" emitted="499" running="436" waiting="1" ended="63" meanWaitingTime="6.09" meanTravelTime="71.95" duration="1" />
    <emission-state time="118" loaded="500" emitted="499" running="436" waiting="1" ended="63" meanWaitingTime="6.09" meanTravelTime="71.95" duration="1" />
    <emission-state time="119" loaded="500" emitted="500" running="437" waiting="0" ended="63" meanWaitingTime="6.32" meanTravelTime="71.95" duration="1" />
    <emission-state time="120" loaded="500" emitted="500" running="436" waiting="0" ended="64" meanWaitingTime="6.32" meanTravelTime="72.61" duration="1" />
    <emission-state time="121" loaded="500" emitted="500" running="435" waiting="0" ended="65" meanWaitingTime="6.32" meanTravelTime="73.35" duration="1" />
    <emission-state time="122" loaded="500" emitted="500" running="435" waiting="0" ended="65" meanWaitingTime="6.32" meanTravelTime="73.35" duration="1" />
    <emission-state time="123" loaded="500" emitted="500" running="433" waiting="0" ended="67" meanWaitingTime="6.32" meanTravelTime="74.82" duration="1" />
    <emission-state time="124" loaded="500" emitted="500" running="431" waiting="0" ended="69" meanWaitingTime="6.32" meanTravelTime="76.13" duration="1" />
    <emission-state time="125" loaded="500" emitted="500" running="430" waiting="0" ended="70" meanWaitingTime="6.32" meanTravelTime="76.74" duration="1" />
    <emission-state time="126" loaded="500" emitted="500" running="430" waiting="0" ended="70" meanWaitingTime="6.32" meanTravelTime="76.74" duration="1" />
    <emission-state time="127" loaded="500" emitted="500" running="428" waiting="0" ended="72" meanWaitingTime="6.32" meanTravelTime="78.06" duration="1" />
    <emission-state time="128" loaded="500" emitted="500" running="427" waiting="0" ended="73" meanWaitingTime="6.32" meanTravelTime="78.74" duration="1" />
    <emission-state time="129" loaded="500" emitted="500" running="426" waiting="0" ended="74" meanWaitingTime="6.32" meanTravelTime="79.34" duration="1" />
    <emission-state time="130" loaded="500" emitted="500" running="425" waiting="0" ended="75" meanWaitingTime="6.32" meanTravelTime="79.93" duration="1" />
    <emission-state time="131" loaded="500" emitted="500" running="425" waiting="0" ended="75" meanWaitingTime="6.32" meanTravelTime="79.93" duration="1" />
    <emission-state time="132" loaded="500" emitted="500" running="424" waiting="0" ended="76" meanWaitingTime="6.32" meanTravelTime="80.62" duration="0" />
    <emission-state time="133" loaded="500" emitted="500" running="422" waiting="0" ended="78" meanWaitingTime="6.32" meanTravelTime="81.83" duration="0" />
    <emission-state time="134" loaded="500" emitted="500" running="420" waiting="0" ended="80" meanWaitingTime="6.32" meanTravelTime="83.03" duration="1" />
    <emission-state time="135" loaded="500" emitted="500" running="420" waiting="0" ended="80" meanWaitingTime="6.32" meanTravelTime="83.03" duration="1" />
    <emission-state time="136" loaded="500" emitted="500" running="420" waiting="0" ended="80" meanWaitingTime="6.32" meanTravelTime="83.03" duration="1" />
    <emission-state time="137" loaded="500" emitted="500" running="419" waiting="0" ended="81" meanWaitingTime="6.32" meanTravelTime="83.69" duration="1" />
    <emission-state time="138" loaded="500" emitted="500" running="419" waiting="0" ended="81" meanWaitingTime="6.32" meanTravelTime="83.69" duration="1" />
    <emission-state time="139" loaded="500" emitted="500" running="417" waiting="0" ended="83" meanWaitingTime="6.32" meanTravelTime="85.01" duration="1" />
    <emission-state time="140" loaded="500" emitted="500" running="414" waiting="0" ended="86" meanWaitingTime="6.32" meanTravelTime="86.86" duration="0" />
    <emission-state time="141" loaded="500" emitted="500" running="412" waiting="0" ended="88" meanWaitingTime="6.32" meanTravelTime="87.09" duration="1" />
    <emission-state time="142" loaded="500" emitted="500" running="411" waiting="0" ended="89" meanWaitingTime="6.32" meanTravelTime="87.67" duration="1" />
    <emission-state time="143" loaded="500" emitted="500" running="407" waiting="0" ended="93" meanWaitingTime="6.32" meanTravelTime="89.92" duration="1" />
    <emission-state time="144" loaded="500" emitted="500" running="407" waiting="0" ended="93" meanWaitingTime="6.32" meanTravelTime="89.92" duration="1" />
    <emission-state time="145" loaded="500" emitted="500" running="402" waiting="0" ended="98" meanWaitingTime="6.32" meanTravelTime="92.60" duration="1" />
    <emission-state time="146" loaded="500" emitted="500" running="399" waiting="0" ended="101" meanWaitingTime="6.32" meanTravelTime="94.12" duration="0" />
    <emission-state time="147" loaded="500" emitted="500" running="399" waiting="0" ended="101" meanWaitingTime="6.32" meanTravelTime="94.12" duration="0" />
    <emission-state time="148" loaded="500" emitted="500" running="397" waiting="0" ended="103" meanWaitingTime="6.32" meanTravelTime="94.74" duration="1" />
    <emission-state time="149" loaded="500" emitted="500" running="397" waiting="0" ended="103" meanWaitingTime="6.32" meanTravelTime="94.74" duration="1" />
    <emission-state time="150" loaded="500" emitted="500" running="396" waiting="0" ended="104" meanWaitingTime="6.32" meanTravelTime="95.20" duration="1" />
    <emission-state time="151" loaded="500" emitted="500" running="392" waiting="0" ended="108" meanWaitingTime="6.32" meanTravelTime="97.27" duration="1" />
    <emission-state time="152" loaded="500" emitted="500" running="391" waiting="0" ended="109" meanWaitingTime="6.32" meanTravelTime="97.77" duration="0" />
    <emission-state time="153" loaded="500" emitted="500" running="389" waiting="0" ended="111" meanWaitingTime="6.32" meanTravelTime="98.71" duration="1" />
    <emission-state time="154" loaded="500" emitted="500" running="389" waiting="0" ended="111" meanWaitingTime="6.32" meanTravelTime="98.71" duration="1" />
    <emission-state time="155" loaded="500" emitted="500" running="388" waiting="0" ended="112" meanWaitingTime="6.32" meanTravelTime="99.16" duration="1" />
    <emission-state time="156" loaded="500" emitted="500" running="386" waiting="0" ended="114" meanWaitingTime="6.32" meanTravelTime="100.13" duration="1" />
    <emission-state time="157" loaded="500" emitted="500" running="385" waiting="0" ended="115" meanWaitingTime="6.32" meanTravelTime="100.59" duration="0" />
    <emission-state time="158" loaded="500" emitted="500" running="384" waiting="0" ended="116" meanWaitingTime="6.32" meanTravelTime="101.06" duration="1" />
    <emission-state time="159" loaded="500" emitted="500" running="383" waiting="0" ended="117" meanWaitingTime="6.32" meanTravelTime="101.56" duration="1" />
    <emission-state time="160" loaded="500" emitted="500" running="382" waiting="0" ended="118" meanWaitingTime="6.32" meanTravelTime="102.00" duration="1" />
    <emission-state time="161" loaded="500" emitted="500" running="379" waiting="0" ended="121" meanWaitingTime="6.32" meanTravelTime="103.28" duration="0" />
    <emission-state time="162" loaded="500" emitted="500" running="378" waiting="0" ended="122" meanWaitingTime="6.32" meanTravelTime="103.74" duration="1" />
    <emission-state time="163" loaded="500" emitted="500" running="378" waiting="0" ended="122" meanWaitingTime="6.32" meanTravelTime="103.74" duration="1" />
    <emission-state time="164" loaded="500" emitted="500" running="377" waiting="0" ended="123" meanWaitingTime="6.32" meanTravelTime="104.20" duration="1" />
    <emission-state time="165" loaded="500" emitted="500" running="376" waiting="0" ended="124" meanWaitingTime="6.32" meanTravelTime="104.67" duration="1" />
    <emission-state time="166" loaded="500" emitted="500" running="375" waiting="0" ended="125" meanWaitingTime="6.32" meanTravelTime="105.14" duration="1" />
    <emission-state time="167" loaded="500" emitted="500" running="373" waiting="0" ended="127" meanWaitingTime="6.32" meanTravelTime="106.09" duration="0" />
    <emission-state time="168" loaded="500" emitted="500" running="373" waiting="0" ended="127" meanWaitingTime="6.32" meanTravelTime="106.09" duration="1" />
    <emission-state time="169" loaded="500" emitted="500" running="372" waiting="0" ended="128" meanWaitingTime="6.32" meanTravelTime="106.54" duration="1" />
    <emission-state time="170" loaded="500" emitted="500" running="372" waiting="0" ended="128" meanWaitingTime="6.32" meanTravelTime="106.54" duration="1" />
    <emission-state time="171" loaded="500" emitted="500" running="370" waiting="0" ended="130" meanWaitingTime="6.32" meanTravelTime="107.44" duration="1" />
    <emission-state time="172" loaded="500" emitted="500" running="369" waiting="0" ended="131" meanWaitingTime="6.32" meanTravelTime="107.93" duration="0" />
    <emission-state time="173" loaded="500" emitted="500" running="368" waiting="0" ended="132" meanWaitingTime="6.32" meanTravelTime="108.42" duration="0" />
    <emission-state time="174" loaded="500" emitted="500" running="367" waiting="0" ended="133" meanWaitingTime="6.32" meanTravelTime="108.89" duration="1" />
    <emission-state time="175" loaded="500" emitted="500" running="366" waiting="0" ended="134" meanWaitingTime="6.32" meanTravelTime="109.23" duration="1" />
    <emission-state time="176" loaded="500" emitted="500" running="363" waiting="0" ended="137" meanWaitingTime="6.32" meanTravelTime="110.65" duration="1" />
    <emission-state time="177" loaded="500" emitted="500" running="362" waiting="0" ended="138" meanWaitingTime="6.32" meanTravelTime="111.04" duration="1" />
    <emission-state time="178" loaded="500" emitted="500" running="361" waiting="0" ended="139" meanWaitingTime="6.32" meanTravelTime="111.53" duration="0" />
    <emission-state time="179" loaded="500" emitted="500" running="360" waiting="0" ended="140" meanWaitingTime="6.32" meanTravelTime="111.99" duration="1" />
    <emission-state time="180" loaded="500" emitted="500" running="359" waiting="0" ended="141" meanWaitingTime="6.32" meanTravelTime="112.43" duration="1" />
    <emission-state time="181" loaded="500" emitted="500" running="358" waiting="0" ended="142" meanWaitingTime="6.32" meanTravelTime="112.89" duration="1" />
    <emission-state time="182" loaded="500" emitted="500" running="356" waiting="0" ended="144" meanWaitingTime="6.32" meanTravelTime="113.81" duration="1" />
    <emission-state time="183" loaded="500" emitted="500" running="356" waiting="0" ended="144" meanWaitingTime="6.32" meanTravelTime="113.81" duration="0" />