<?xml version="1.0"?>

<!-- generated on Mon Jun 14 19:57:55 2010 by SUMO sumo Version 0.11.1
<configuration>

    <input>
        <net-file value="condor/tl2/bahia-rivadavia/40/rivadavia.net.xml"/>
        <route-files value="condor/tl2/bahia-rivadavia/40/rivadavia.500.rou.xml"/>
        <additional-files value="condor/tl2/bahia-rivadavia/40/tl-logic.add.xml"/>
    </input>

    <output>
        <emissions-output value="condor/tl2/bahia-rivadavia/40/output-emissions.xml"/>
        <tripinfo-output value="condor/tl2/bahia-rivadavia/40/output-tripinfos.xml"/>
        <vehroute-output value="condor/tl2/bahia-rivadavia/40/output-vehroutes.xml"/>
    </output>

    <time>
        <begin value="0"/>
        <end value="500"/>
    </time>

    <processing>
        <route-steps value="-1"/>
        <time-to-teleport value="-1"/>
    </processing>

    <report>
        <print-options value="false"/>
        <suppress-warnings value="true"/>
    </report>

    <random_number>
        <srand value="23423"/>
    </random_number>

    <gui_only>
        <gui-settings-file value=""/>
    </gui_only>

</configuration>
-->

<tripinfos>
    <tripinfo id="Rand363" depart="3" departLane="27077992#2_0" departPos="0.00" departSpeed="0.00" departDelay="3" arrival="4" arrivalLane="27077992#2_0" arrivalPos="1.89" arrivalSpeed="1.89" duration="1" routeLength="1.89" waitSteps="0" rerouteNo="0" devices="" vtype="DEFAULT_VEHTYPE" vaporized=""></tripinfo>
    <tripinfo id="Rand396" depart="3" departLane="27082600#0_0" departPos="0.00" departSpeed="0.00" departDelay="3" arrival="4" arrivalLane="27082600#0_0" arrivalPos="1.67" arrivalSpeed="1.67" duration="1" routeLength="1.67" waitSteps="0" rerouteNo="0" devices="" vtype="DEFAULT_VEHTYPE" vaporized=""></tripinfo>
    <tripinfo id="Rand556" depart="9" departLane="27083337#1_0" departPos="0.00" departSpeed="0.00" departDelay="9" arrival="10" arrivalLane="27083337#1_0" arrivalPos="2.42" arrivalSpeed="2.42" duration="1" routeLength="2.42" waitSteps="0" rerouteNo="0" devices="" vtype="DEFAULT_VEHTYPE" vaporized=""></tripinfo>
    <tripinfo id="Rand28" depart="0" departLane="27082629#5_0" departPos="0.00" departSpeed="0.00" departDelay="0" arrival="17" arrivalLane="27082629#7_0" arrivalPos="10.49" arrivalSpeed="21.68" duration="17" routeLength="213.00" waitSteps="0" rerouteNo="0" devices="" vtype="DEFAULT_VEHTYPE" vaporized=""></tripinfo>
    <tripinfo id="Rand107" depart="0" departLane="27082604#0_0" departPos="0.00" departSpeed="0.00" departDelay="0" arrival="21" arrivalLane="27083324#0_0" arrivalPos="6.74" arrivalSpeed="7.66" duration="21" routeLength="193.13" waitSteps="0" rerouteNo="0" devices="" vtype="DEFAULT_VEHTYPE" vaporized=""></tripinfo>
    <tripinfo id="Rand124" depart="0" departLane="27056035#0_0" departPos="0.00" departSpeed="0.00" departDelay="0" arrival="26" arrivalLane="27494703#0_0" arrivalPos="4.09" arrivalSpeed="4.58" duration="26" routeLength="191.60" waitSteps="2" rerouteNo="0" devices="" vtype="DEFAULT_VEHTYPE" vaporized=""></tripinfo>
    <tripinfo id="Rand58" depart="9" departLane="27053786#1_0" departPos="0.00" departSpeed="0.00" departDelay="9" arrival="30" arrivalLane="27053786#2_0" arrivalPos="2.80" arrivalSpeed="7.60" duration="21" routeLength="184.22" waitSteps="0" rerouteNo="0" devices="" vtype="DEFAULT_VEHTYPE" vaporized=""></tripinfo>
    <tripinfo id="Rand207" depart="0" departLane="-27082628#1_0" departPos="0.00" departSpeed="0.00" departDelay="0" arrival="39" arrivalLane="27082604#5_0" arrivalPos="4.19" arrivalSpeed="6.41" duration="39" routeLength="361.44" waitSteps="0" rerouteNo="0" devices="" vtype="DEFAULT_VEHTYPE" vaporized=""></tripinfo>
    <tripinfo id="Rand174" depart="0" departLane="27055797#1_0" departPos="0.00" departSpeed="0.00" departDelay="0" arrival="45" arrivalLane="27639462#1_0" arrivalPos="3.88" arrivalSpeed="8.84" duration="45" routeLength="360.94" waitSteps="7" rerouteNo="0" devices="" vtype="DEFAULT_VEHTYPE" vaporized=""></tripinfo>
    <tripinfo id="Rand330" depart="0" departLane="27082616#3_0" departPos="0.00" departSpeed="0.00" departDelay="0" arrival="46" arrivalLane="27082616#5_0" arrivalPos="3.05" arrivalSpeed="13.87" duration="46" routeLength="366.20" waitSteps="7" rerouteNo="0" devices="" vtype="DEFAULT_VEHTYPE" vaporized=""></tripinfo>
    <tripinfo id="Rand316" depart="6" departLane="27052071#1_0" departPos="0.00" departSpeed="0.00" departDelay="6" arrival="48" arrivalLane="27053171#3_0" arrivalPos="1.86" arrivalSpeed="21.50" duration="42" routeLength="492.14" waitSteps="0" rerouteNo="0" devices="" vtype="DEFAULT_VEHTYPE" vaporized=""></tripinfo>
    <tripinfo id="Rand584" depart="15" departLane="27056035#1_0" departPos="0.00" departSpeed="0.00" departDelay="15" arrival="48" arrivalLane="27056027#2_0" arrivalPos="8.29" arrivalSpeed="12.82" duration="33" routeLength="322.53" waitSteps="0" rerouteNo="0" devices="" vtype="DEFAULT_VEHTYPE" vaporized=""></tripinfo>
    <tripinfo id="Rand210" depart="3" departLane="27082617#3_0" departPos="0.00" departSpeed="0.00" departDelay="3" arrival="50" arrivalLane="27082616#3_0" arrivalPos="1.86" arrivalSpeed="13.44" duration="47" routeLength="538.69" waitSteps="0" rerouteNo="0" devices="" vtype="DEFAULT_VEHTYPE" vaporized=""></tripinfo>
    <tripinfo id="Rand460" depart="6" departLane="27053106#4_0" departPos="0.00" departSpeed="0.00" departDelay="6" arrival="50" arrivalLane="-27494703#1_0" arrivalPos="5.67" arrivalSpeed="8.06" duration="44" routeLength="349.62" waitSteps="5" rerouteNo="0" devices="" vtype="DEFAULT_VEHTYPE" vaporized=""></tripinfo>
    <tripinfo id="Rand181" depart="3" departLane="27082600#4_0" departPos="0.00" departSpeed="0.00" departDelay="3" arrival="51" arrivalLane="28813885#1_0" arrivalPos="1.93" arrivalSpeed="9.61" duration="48" routeLength="344.85" waitSteps="8" rerouteNo="0" devices="" vtype="DEFAULT_VEHTYPE" vaporized=""></tripinfo>
    <tripinfo id="Rand153" depart="0" departLane="27486763#0+27486763#2_0" departPos="0.00" departSpeed="0.00" departDelay="0" arrival="53" arrivalLane="27082624#3_0" arrivalPos="4.13" arrivalSpeed="13.07" duration="53" routeLength="634.34" waitSteps="0" rerouteNo="0" devices="" vtype="DEFAULT_VEHTYPE" vaporized=""></tripinfo>
    <tripinfo id="Rand478" depart="9" departLane="27053106#4_0" departPos="0.00" departSpeed="0.00" departDelay="9" arrival="53" arrivalLane="-27494703#1_0" arrivalPos="3.79" arrivalSpeed="8.20" duration="44" routeLength="347.74" waitSteps="4" rerouteNo="0" devices="" vtype="DEFAULT_VEHTYPE" vaporized=""></tripinfo>
    <tripinfo id="Rand244" depart="3" departLane="28813885#1_0" departPos="0.00" departSpeed="0.00" departDelay="3" arrival="55" arrivalLane="27082600#4_0" arrivalPos="2.32" arrivalSpeed="10.62" duration="52" routeLength="672.92" waitSteps="0" rerouteNo="0" devices="" vtype="DEFAULT_VEHTYPE" vaporized=""></tripinfo>
    <tripinfo id="Rand328" depart="3" departLane="27078417#1_0" departPos="0.00" departSpeed="0.00" departDelay="3" arrival="55" arrivalLane="27078417#3_0" arrivalPos="1.79" arrivalSpeed="6.70" duration="52" routeLength="368.04" waitSteps="3" rerouteNo="0" devices="" vtype="DEFAULT_VEHTYPE" vaporized=""></tripinfo>
    <tripinfo id="Rand532" depart="3" departLane="-27082628#2_0" departPos="0.00" departSpeed="0.00" departDelay="3" arrival="57" arrivalLane="27082628#3_0" arrivalPos="4.03" arrivalSpeed="6.43" duration="54" routeLength="345.05" waitSteps="17" rerouteNo="0" devices="" vtype="DEFAULT_VEHTYPE" vaporized=""></tripinfo>
    <tripinfo id="Rand389" depart="9" departLane="27082629#3_0" departPos="0.00" departSpeed="0.00" departDelay="9" arrival="57" arrivalLane="27082625#2_0" arrivalPos="11.85" arrivalSpeed="13.49" duration="48" routeLength="393.90" waitSteps="3" rerouteNo="0" devices="" vtype="DEFAULT_VEHTYPE" vaporized=""></tripinfo>
    <tripinfo id="Rand454" depart="3" departLane="27082624#1_0" departPos="0.00" departSpeed="0.00" departDelay="3" arrival="59" arrivalLane="27082624#4_0" arrivalPos="3.33" arrivalSpeed="7.61" duration="56" routeLength="479.69" waitSteps="0" rerouteNo="0" devices="" vtype="DEFAULT_VEHTYPE" vaporized=""></tripinfo>
    <tripinfo id="Rand122" depart="0" departLane="27077992#1_0" departPos="0.00" departSpeed="0.00" departDelay="0" arrival="60" arrivalLane="27082600#4_0" arrivalPos="5.59" arrivalSpeed="7.72" duration="60" routeLength="369.26" waitSteps="9" rerouteNo="0" devices="" vtype="DEFAULT_VEHTYPE" vaporized=""></tripinfo>
    <tripinfo id="Rand344" depart="9" departLane="28813885#1_0" departPos="0.00" departSpeed="0.00" departDelay="9" arrival="63" arrivalLane="27082616#3_0" arrivalPos="5.66" arrivalSpeed="7.00" duration="54" routeLength="680.82" waitSteps="0" rerouteNo="0" devices="" vtype="DEFAULT_VEHTYPE" vaporized=""></tripinfo>
    <tripinfo id="Rand507" depart="4" departLane="27082600#0_0" departPos="0.00" departSpeed="0.00" departDelay="4" arrival="64" arrivalLane="27082617#1_0" arrivalPos="6.04" arrivalSpeed="13.68" duration="60" routeLength="650.95" waitSteps="0" rerouteNo="0" devices="" vtype="DEFAULT_VEHTYPE" vaporized=""></tripinfo>
    <tripinfo id="Rand585" depart="5" departLane="-27082628#0_0" departPos="0.00" departSpeed="0.00" departDelay="5" arrival="65" arrivalLane="27082605_0" arrivalPos="9.96" arrivalSpeed="13.87" duration="60" routeLength="395.18" waitSteps="20" rerouteNo="0" devices="" vtype="DEFAULT_VEHTYPE" vaporized=""></tripinfo>
    <tripinfo id="Rand395" depart="3" departLane="27078417#0_0" departPos="0.00" departSpeed="0.00" departDelay="3" arrival="71" arrivalLane="27053170#1_0" arrivalPos="12.31" arrivalSpeed="12.99" duration="68" routeLength="512.59" waitSteps="23" rerouteNo="0" devices="" vtype="DEFAULT_VEHTYPE" vaporized=""></tripinfo>
    <tripinfo id="Rand604" depart="6" departLane="27082628#4_0" departPos="0.00" departSpeed="0.00" departDelay="6" arrival="73" arrivalLane="27082616#3_0" arrivalPos="1.38" arrivalSpeed="13.73" duration="67" routeLength="679.55" waitSteps="0" rerouteNo="0" devices="" vtype="DEFAULT_VEHTYPE" vaporized=""></tripinfo>
    <tripinfo id="Rand567" depart="4" departLane="28629700#3_0" departPos="0.00" departSpeed="0.00" departDelay="4" arrival="76" arrivalLane="27056035#0_0" arrivalPos="0.66" arrivalSpeed="6.49" duration="72" routeLength="533.07" waitSteps="30" rerouteNo="0" devices="" vtype="DEFAULT_VEHTYPE" vaporized=""></tripinfo>
    <tripinfo id="Rand233" depart="3" departLane="-27082628#3_0" departPos="0.00" departSpeed="0.00" departDelay="3" arrival="77" arrivalLane="27082628#4_1" arrivalPos="2.31" arrivalSpeed="6.34" duration="74" routeLength="419.09" waitSteps="33" rerouteNo="0" devices="" vtype="DEFAULT_VEHTYPE" vaporized=""></tripinfo>
    <tripinfo id="Rand370" depart="3" departLane="-27494703#1_0" departPos="0.00" departSpeed="0.00" departDelay="3" arrival="78" arrivalLane="27052067#4_0" arrivalPos="3.91" arrivalSpeed="13.84" duration="75" routeLength="628.07" waitSteps="10" rerouteNo="0" devices="" vtype="DEFAULT_VEHTYPE" vaporized=""></tripinfo>
    <tripinfo id="Rand175" depart="0" departLane="27052067#1_0" departPos="0.00" departSpeed="0.00" departDelay="0" arrival="80" arrivalLane="27083324#3_0" arrivalPos="6.26" arrivalSpeed="7.97" duration="80" routeLength="361.92" waitSteps="41" rerouteNo="0" devices="" vtype="DEFAULT_VEHTYPE" vaporized=""></tripinfo>
    <tripinfo id="Rand93" depart="0" departLane="27053170#2_0" departPos="0.00" departSpeed="0.00" departDelay="0" arrival="81" arrivalLane="27082600#1_0" arrivalPos="2.21" arrivalSpeed="5.88" duration="81" routeLength="906.99" waitSteps="0" rerouteNo="0" devices="" vtype="DEFAULT_VEHTYPE" vaporized=""></tripinfo>
    <tripinfo id="Rand99" depart="6" departLane="27053790#4_0" departPos="0.00" departSpeed="0.00" departDelay="6" arrival="87" arrivalLane="27078417#3_0" arrivalPos="4.55" arrivalSpeed="7.66" duration="81" routeLength="691.91" waitSteps="7" rerouteNo="0" devices="" vtype="DEFAULT_VEHTYPE" vaporized=""></tripinfo>
    <tripinfo id="Rand365" depart="0" departLane="28813885#3_0" departPos="0.00" departSpeed="0.00" departDelay="0" arrival="88" arrivalLane="27053106#2_0" arrivalPos="6.19" arrivalSpeed="8.42" duration="88" routeLength="1007.57" waitSteps="2" rerouteNo="0" devices="" vtype="DEFAULT_VEHTYPE" vaporized=""></tripinfo>
    <tripinfo id="Rand190" depart="0" departLane="27082600#1_0" departPos="0.00" departSpeed="0.00" departDelay="0" arrival="90" arrivalLane="27077992#4_0" arrivalPos="9.43" arrivalSpeed="9.66" duration="90" routeLength="728.26" waitSteps="5" rerouteNo="0" devices="" vtype="DEFAULT_VEHTYPE" vaporized=""></tripinfo>
    <tripinfo id="Rand258" depart="1" departLane="-27082628#0_0" departPos="0.00" departSpeed="0.00" departDelay="1" arrival="91" arrivalLane="27053786#5_0" arrivalPos="1.59" arrivalSpeed="5.54" duration="90" routeLength="602.44" waitSteps="24" rerouteNo="0" devices="" vtype="DEFAULT_VEHTYPE" vaporized=""></tripinfo>
    <tripinfo id="Rand435" depart="3" departLane="27082600#1_0" departPos="0.00" departSpeed="0.00" departDelay="3" arrival="97" arrivalLane="27052071#0_0" arrivalPos="4.54" arrivalSpeed="5.41" duration="94" routeLength="837.88" waitSteps="18" rerouteNo="0" devices="" vtype="DEFAULT_VEHTYPE" vaporized=""></tripinfo>
    <tripinfo id="Rand447" depart="9" departLane="27053106#3_0" departPos="0.00" departSpeed="0.00" departDelay="9" arrival="99" arrivalLane="27053171#2_0" arrivalPos="16.14" arrivalSpeed="22.01" duration="90" routeLength="714.04" waitSteps="18" rerouteNo="0" devices="" vtype="DEFAULT_VEHTYPE" vaporized=""></tripinfo>
    <tripinfo id="Rand73" depart="6" departLane="28813885#0_0" departPos="0.00" departSpeed="0.00" departDelay="6" arrival="100" arrivalLane="28813885#2_0" arrivalPos="13.59" arrivalSpeed="18.05" duration="94" routeLength="1010.68" waitSteps="28" rerouteNo="0" devices="" vtype="DEFAULT_VEHTYPE" vaporized=""></tripinfo>
    <tripinfo id="Rand117" depart="0" departLane="27082628#1_0" departPos="0.00" departSpeed="0.00" departDelay="0" arrival="100" arrivalLane="27052071#2_0" arrivalPos="5.25" arrivalSpeed="7.72" duration="100" routeLength="1421.41" waitSteps="0" rerouteNo="0" devices="" vtype="DEFAULT_VEHTYPE" vaporized=""></tripinfo>
    <tripinfo id="Rand283" depart="6" departLane="28813885#2_0" departPos="0.00" departSpeed="0.00" departDelay="6" arrival="101" arrivalLane="27082617#2_0" arrivalPos="6.67" arrivalSpeed="13.66" duration="95" routeLength="1308.12" waitSteps="0" rerouteNo="0" devices="" vtype="DEFAULT_VEHTYPE" vaporized=""></tripinfo>
    <tripinfo id="Rand416" depart="9" departLane="27053791#0_0" departPos="0.00" departSpeed="0.00" departDelay="9" arrival="102" arrivalLane="27082628#1_0" arrivalPos="17.10" arrivalSpeed="18.97" duration="93" routeLength="424.11" waitSteps="38" rerouteNo="0" devices="" vtype="DEFAULT_VEHTYPE" vaporized=""></tripinfo>
    <tripinfo id="Rand274" depart="6" departLane="27082600#3_0" departPos="0.00" departSpeed="0.00" departDelay="6" arrival="102" arrivalLane="27078417#0_0" arrivalPos="2.87" arrivalSpeed="6.97" duration="96" routeLength="1035.17" waitSteps="1" rerouteNo="0" devices="" vtype="DEFAULT_VEHTYPE" vaporized=""></tripinfo>
    <tripinfo id="Rand145" depart="0" departLane="27053106#3_0" departPos="0.00" departSpeed="0.00" departDelay="0" arrival="102" arrivalLane="27082604#1_0" arrivalPos="5.08" arrivalSpeed="7.49" duration="102" routeLength="1141.15" waitSteps="7" rerouteNo="0" devices="" vtype="DEFAULT_VEHTYPE" vaporized=""></tripinfo>
    <tripinfo id="Rand476" depart="9" departLane="-27494703#1_0" departPos="0.00" departSpeed="0.00" departDelay="9" arrival="103" arrivalLane="27053171#0_0" arrivalPos="4.75" arrivalSpeed="10.64" duration="94" routeLength="470.70" waitSteps="19" rerouteNo="0" devices="" vtype="DEFAULT_VEHTYPE" vaporized=""></tripinfo>
    <tripinfo id="Rand168" depart="0" departLane="28813885#2_0" departPos="0.00" departSpeed="0.00" departDelay="0" arrival="103" arrivalLane="-28629700#1_1" arrivalPos="15.50" arrivalSpeed="16.87" duration="103" routeLength="1309.06" waitSteps="16" rerouteNo="0" devices="" vtype="DEFAULT_VEHTYPE" vaporized=""></tripinfo>
    <tripinfo id="Rand353" depart="0" departLane="27082629#0_0" departPos="0.00" departSpeed="0.00" departDelay="0" arrival="104" arrivalLane="27082624#4_0" arrivalPos="6.88" arrivalSpeed="8.30" duration="104" routeLength="628.18" waitSteps="41" rerouteNo="0" devices="" vtype="DEFAULT_VEHTYPE" vaporized=""></tripinfo>
    <tripinfo id="Rand218" depart="0" departLane="27052067#3_0" departPos="0.00" departSpeed="0.00" departDelay="0" arrival="104" arrivalLane="27082625#0_0" arrivalPos="11.38" arrivalSpeed="13.22" duration="104" routeLength="833.69" waitSteps="16" rerouteNo="0" devices="" vtype="DEFAULT_VEHTYPE" vaporized=""></tripinfo>
    <tripinfo id="Rand423" depart="1" departLane="-28629700#1_0" departPos="0.00" departSpeed="0.00" departDelay="1" arrival="105" arrivalLane="27052071#3_0" arrivalPos="5.99" arrivalSpeed="6.16" duration="104" routeLength="721.72" waitSteps="35" rerouteNo="0" devices="" vtype="DEFAULT_VEHTYPE" vaporized=""></tripinfo>
    <tripinfo id="Rand508" depart="20" departLane="27052067#3_0" departPos="0.00" departSpeed="0.00" departDelay="20" arrival="105" arrivalLane="27083324#1_0" arrivalPos="12.68" arrivalSpeed="13.60" duration="85" routeLength="367.30" waitSteps="47" rerouteNo="0" devices="" vtype="DEFAULT_VEHTYPE" vaporized=""></tripinfo>
    <tripinfo id="Rand215" depart="0" departLane="27082625#0_0" departPos="0.00" departSpeed="0.00" departDelay="0" arrival="110" arrivalLane="27053791#0_0" arrivalPos="9.47" arrivalSpeed="10.74" duration="110" routeLength="1016.63" waitSteps="8" rerouteNo="0" devices="" vtype="DEFAULT_VEHTYPE" vaporized=""></tripinfo>
    <tripinfo id="Rand138" depart="0" departLane="27082600#3_0" departPos="0.00" departSpeed="0.00" departDelay="0" arrival="112" arrivalLane="27077992#1_0" arrivalPos="9.55" arrivalSpeed="13.18" duration="112" routeLength="1283.13" waitSteps="1" rerouteNo="0" devices="" vtype="DEFAULT_VEHTYPE" vaporized=""></tripinfo>
    <tripinfo id="Rand554" depart="33" departLane="-27082628#3_0" departPos="0.00" departSpeed="0.00" departDelay="33" arrival="113" arrivalLane="27082628#1_1" arrivalPos="1.69" arrivalSpeed="4.32" duration="80" routeLength="525.82" waitSteps="19" rerouteNo="0" devices="" vtype="DEFAULT_VEHTYPE" vaporized=""></tripinfo>
    <tripinfo id="Rand438" depart="6" departLane="27078417#0_0" departPos="0.00" departSpeed="0.00" departDelay="6" arrival="114" arrivalLane="27052071#1_0" arrivalPos="7.62" arrivalSpeed="13.62" duration="108" routeLength="967.11" waitSteps="25" rerouteNo="0" devices="" vtype="DEFAULT_VEHTYPE" vaporized=""></tripinfo>
    <tripinfo id="Rand229" depart="3" departLane="28813885#2_0" departPos="0.00" departSpeed="0.00" departDelay="3" arrival="114" arrivalLane="27083324#3_0" arrivalPos="5.57" arrivalSpeed="7.86" duration="111" routeLength="1054.08" waitSteps="9" rerouteNo="0" devices="" vtype="DEFAULT_VEHTYPE" vaporized=""></tripinfo>
    <tripinfo id="Rand112" depart="0" departLane="27053106#1_0" departPos="0.00" departSpeed="0.00" departDelay="0" arrival="114" arrivalLane="27082616#3_0" arrivalPos="5.30" arrivalSpeed="8.13" duration="114" routeLength="1183.96" waitSteps="11" rerouteNo="0" devices="" vtype="DEFAULT_VEHTYPE" vaporized=""></tripinfo>
    <tripinfo id="Rand141" depart="0" departLane="27082600#2_0" departPos="0.00" departSpeed="0.00" departDelay="0" arrival="115" arrivalLane="27082617#1_0" arrivalPos="1.45" arrivalSpeed="12.92" duration="115" routeLength="914.65" waitSteps="2" rerouteNo="0" devices="" vtype="DEFAULT_VEHTYPE" vaporized=""></tripinfo>
    <tripinfo id="Rand63" depart="6" departLane="27082629#2_0" departPos="0.00" departSpeed="0.00" departDelay="6" arrival="115" arrivalLane="27082624#1_0" arrivalPos="7.44" arrivalSpeed="13.85" duration="109" routeLength="633.31" waitSteps="32" rerouteNo="0" devices="" vtype="DEFAULT_VEHTYPE" vaporized=""></tripinfo>
    <tripinfo id="Rand128" depart="0" departLane="27077992#3_0" departPos="0.00" departSpeed="0.00" departDelay="0" arrival="115" arrivalLane="27052069#0_0" arrivalPos="9.17" arrivalSpeed="13.38" duration="115" routeLength="1341.84" waitSteps="14" rerouteNo="0" devices="" vtype="DEFAULT_VEHTYPE" vaporized=""></tripinfo>
    <tripinfo id="Rand437" depart="0" departLane="27082629#2_0" departPos="0.00" departSpeed="0.00" departDelay="0" arrival="115" arrivalLane="-27082628#0_1" arrivalPos="4.17" arrivalSpeed="5.89" duration="115" routeLength="598.21" waitSteps="36" rerouteNo="0" devices="" vtype="DEFAULT_VEHTYPE" vaporized=""></tripinfo>
    <tripinfo id="Rand575" depart="28" departLane="27082600#3_0" departPos="0.00" departSpeed="0.00" departDelay="28" arrival="115" arrivalLane="27078417#2_0" arrivalPos="11.33" arrivalSpeed="13.68" duration="87" routeLength="727.03" waitSteps="7" rerouteNo="0" devices="" vtype="DEFAULT_VEHTYPE" vaporized=""></tripinfo>
    <tripinfo id="Rand517" depart="9" departLane="27056035#1_0" departPos="0.00" departSpeed="0.00" departDelay="9" arrival="117" arrivalLane="27056027#1_0" arrivalPos="6.60" arrivalSpeed="8.56" duration="108" routeLength="853.10" waitSteps="21" rerouteNo="0" devices="" vtype="DEFAULT_VEHTYPE" vaporized=""></tripinfo>
    <tripinfo id="Rand432" depart="6" departLane="27078417#3_0" departPos="0.00" departSpeed="0.00" departDelay="6" arrival="120" arrivalLane="27082600#4_0" arrivalPos="2.25" arrivalSpeed="7.05" duration="114" routeLength="738.48" waitSteps="4" rerouteNo="0" devices="" vtype="DEFAULT_VEHTYPE" vaporized=""></tripinfo>
    <tripinfo id="Rand179" depart="0" departLane="28629700#0_0" departPos="0.00" departSpeed="0.00" departDelay="0" arrival="121" arrivalLane="27053171#1_0" arrivalPos="21.00" arrivalSpeed="22.20" duration="121" routeLength="1649.78" waitSteps="30" rerouteNo="0" devices="" vtype="DEFAULT_VEHTYPE" vaporized=""></tripinfo>
    <tripinfo id="Rand404" depart="0" departLane="27639462#2_0" departPos="0.00" departSpeed="0.00" departDelay="0" arrival="123" arrivalLane="27052069#1_0" arrivalPos="1.68" arrivalSpeed="5.91" duration="123" routeLength="634.34" waitSteps="50" rerouteNo="0" devices="" vtype="DEFAULT_VEHTYPE" vaporized=""></tripinfo>
    <tripinfo id="Rand194" depart="1" departLane="27082628#1_0" departPos="0.00" departSpeed="0.00" departDelay="1" arrival="123" arrivalLane="-27494703#1_0" arrivalPos="1.88" arrivalSpeed="7.66" duration="122" routeLength="1434.98" waitSteps="13" rerouteNo="0" devices="" vtype="DEFAULT_VEHTYPE" vaporized=""></tripinfo>
    <tripinfo id="Rand357" depart="5" departLane="27053106#3_0" departPos="0.00" departSpeed="0.00" departDelay="5" arrival="124" arrivalLane="-27494703#0_0" arrivalPos="3.00" arrivalSpeed="4.54" duration="119" routeLength="703.11" waitSteps="42" rerouteNo="0" devices="" vtype="DEFAULT_VEHTYPE" vaporized=""></tripinfo>
    <tripinfo id="Rand213" depart="3" departLane="27082604#3_0" departPos="0.00" departSpeed="0.00" departDelay="3" arrival="124" arrivalLane="27082628#0_1" arrivalPos="2.11" arrivalSpeed="4.44" duration="121" routeLength="267.84" waitSteps="83" rerouteNo="0" devices="" vtype="DEFAULT_VEHTYPE" vaporized=""></tripinfo>
    <tripinfo id="Rand284" depart="6" departLane="27053170#1_0" departPos="0.00" departSpeed="0.00" departDelay="6" arrival="125" arrivalLane="27082628#1_1" arrivalPos="1.81" arrivalSpeed="4.31" duration="119" routeLength="1213.85" waitSteps="3" rerouteNo="0" devices="" vtype="DEFAULT_VEHTYPE" vaporized=""></tripinfo>
    <tripinfo id="Rand415" depart="6" departLane="27053106#2_0" departPos="0.00" departSpeed="0.00" departDelay="6" arrival="127" arrivalLane="27154183#2_0" arrivalPos="7.04" arrivalSpeed="13.82" duration="121" routeLength="879.11" waitSteps="31" rerouteNo="0" devices="" vtype="DEFAULT_VEHTYPE" vaporized=""></tripinfo>
    <tripinfo id="Rand170" depart="0" departLane="27053106#4_0" departPos="0.00" departSpeed="0.00" departDelay="0" arrival="127" arrivalLane="27055797#1_0" arrivalPos="3.53" arrivalSpeed="13.13" duration="127" routeLength="986.06" waitSteps="59" rerouteNo="0" devices="" vtype="DEFAULT_VEHTYPE" vaporized=""></tripinfo>
    <tripinfo id="Rand166" depart="0" departLane="27053786#0_0" departPos="0.00" departSpeed="0.00" departDelay="0" arrival="128" arrivalLane="27053170#0_0" arrivalPos="2.74" arrivalSpeed="7.24" duration="128" routeLength="803.75" waitSteps="30" rerouteNo="0" devices="" vtype="DEFAULT_VEHTYPE" vaporized=""></tripinfo>
    <tripinfo id="Rand601" depart="6" departLane="27053782#2_0" departPos="0.00" departSpeed="0.00" departDelay="6" arrival="129" arrivalLane="27082604#4_0" arrivalPos="8.94" arrivalSpeed="9.01" duration="123" routeLength="1033.06" waitSteps="15" rerouteNo="0" devices="" vtype="DEFAULT_VEHTYPE" vaporized=""></tripinfo>
    <tripinfo id="Rand340" depart="6" departLane="27052067#3_0" departPos="0.00" departSpeed="0.00" departDelay="6" arrival="130" arrivalLane="28629700#3_1" arrivalPos="6.07" arrivalSpeed="8.21" duration="124" routeLength="1131.82" waitSteps="15" rerouteNo="0" devices="" vtype="DEFAULT_VEHTYPE" vaporized=""></tripinfo>
    <tripinfo id="Rand199" depart="0" departLane="27078417#0_0" departPos="0.00" departSpeed="0.00" departDelay="0" arrival="132" arrivalLane="27077992#2_0" arrivalPos="5.38" arrivalSpeed="7.40" duration="132" routeLength="1109.39" waitSteps="24" rerouteNo="0" devices="" vtype="DEFAULT_VEHTYPE" vaporized=""></tripinfo>
    <tripinfo id="Rand286" depart="3" departLane="28629700#1_0" departPos="0.00" departSpeed="0.00" departDelay="3" arrival="133" arrivalLane="27053106#3_0" arrivalPos="0.69" arrivalSpeed="2.54" duration="130" routeLength="853.57" waitSteps="10" rerouteNo="0" devices="" vtype="DEFAULT_VEHTYPE" vaporized=""></tripinfo>
    <tripinfo id="Rand374" depart="7" departLane="-27082628#3_0" departPos="0.00" departSpeed="0.00" departDelay="7" arrival="133" arrivalLane="28813885#4_0" arrivalPos="1.66" arrivalSpeed="6.75" duration="126" routeLength="867.55" waitSteps="46" rerouteNo="0" devices="" vtype="DEFAULT_VEHTYPE" vaporized=""></tripinfo>
    <tripinfo id="Rand336" depart="6" departLane="27122600#1_0" departPos="0.00" departSpeed="0.00" departDelay="6" arrival="134" arrivalLane="27056034#2_0" arrivalPos="8.64" arrivalSpeed="12.95" duration="128" routeLength="685.32" waitSteps="55" rerouteNo="0" devices="" vtype="DEFAULT_VEHTYPE" vaporized=""></tripinfo>
    <tripinfo id="Rand248" depart="3" departLane="27053786#1_0" departPos="0.00" departSpeed="0.00" departDelay="3" arrival="134" arrivalLane="27082625#3_0" arrivalPos="11.27" arrivalSpeed="13.70" duration="131" routeLength="1187.00" waitSteps="12" rerouteNo="0" devices="" vtype="DEFAULT_VEHTYPE" vaporized=""></tripinfo>
    <tripinfo id="Rand33" depart="0" departLane="28629700#3_0" departPos="0.00" departSpeed="0.00" departDelay="0" arrival="137" arrivalLane="27056034#1_0" arrivalPos="8.77" arrivalSpeed="13.78" duration="137" routeLength="889.72" waitSteps="55" rerouteNo="0" devices="" vtype="DEFAULT_VEHTYPE" vaporized=""></tripinfo>
    <tripinfo id="Rand431" depart="1" departLane="-28629700#3_0" departPos="0.00" departSpeed="0.00" departDelay="1" arrival="139" arrivalLane="27053782#3_0" arrivalPos="11.99" arrivalSpeed="12.90" duration="138" routeLength="1195.62" waitSteps="0" rerouteNo="0" devices="" vtype="DEFAULT_VEHTYPE" vaporized=""></tripinfo>
    <tripinfo id="Rand259" depart="0" departLane="28629700#2_0" departPos="0.00" departSpeed="0.00" departDelay="0" arrival="139" arrivalLane="27055797#2_0" arrivalPos="8.69" arrivalSpeed="13.48" duration="139" routeLength="966.09" waitSteps="62" rerouteNo="0" devices="" vtype="DEFAULT_VEHTYPE" vaporized=""></tripinfo>
    <tripinfo id="Rand429" depart="6" departLane="27083337#2_0" departPos="0.00" departSpeed="0.00" departDelay="6" arrival="140" arrivalLane="27053106#3_0" arrivalPos="1.80" arrivalSpeed="1.91" duration="134" routeLength="1013.85" waitSteps="7" rerouteNo="0" devices="" vtype="DEFAULT_VEHTYPE" vaporized=""></tripinfo>
    <tripinfo id="Rand362" depart="0" departLane="-27494703#1_0" departPos="0.00" departSpeed="0.00" departDelay="0" arrival="140" arrivalLane="27053786#2_0" arrivalPos="5.06" arrivalSpeed="7.15" duration="140" routeLength="1167.29" waitSteps="13" rerouteNo="0" devices="" vtype="DEFAULT_VEHTYPE" vaporized=""></tripinfo>
    <tripinfo id="Rand148" depart="0" departLane="27082604#3_0" departPos="0.00" departSpeed="0.00" departDelay="0" arrival="140" arrivalLane="27082605_0" arrivalPos="7.92" arrivalSpeed="13.82" duration="140" routeLength="476.16" waitSteps="87" rerouteNo="0" devices="" vtype="DEFAULT_VEHTYPE" vaporized=""></tripinfo>
    <tripinfo id="Rand409" depart="1" departLane="28629700#3_0" departPos="0.00" departSpeed="0.00" departDelay="1" arrival="141" arrivalLane="27056034#1_0" arrivalPos="4.03" arrivalSpeed="13.21" duration="140" routeLength="884.98" waitSteps="51" rerouteNo="0" devices="" vtype="DEFAULT_VEHTYPE" vaporized=""></tripinfo>
    <tripinfo id="Rand622" depart="87" departLane="27053791#0_0" departPos="0.00" departSpeed="0.00" departDelay="87" arrival="141" arrivalLane="27053791#2_0" arrivalPos="7.93" arrivalSpeed="11.44" duration="54" routeLength="282.39" waitSteps="20" rerouteNo="0" devices="" vtype="DEFAULT_VEHTYPE" vaporized=""></tripinfo>
    <tripinfo id="Rand301" depart="3" departLane="27052071#2_0" departPos="0.00" departSpeed="0.00" departDelay="3" arrival="142" arrivalLane="27056034#3_0" arrivalPos="5.34" arrivalSpeed="7.00" duration="139" routeLength="833.85" waitSteps="28" rerouteNo="0" devices="" vtype="DEFAULT_VEHTYPE" vaporized=""></tripinfo>
    <tripinfo id="Rand271" depart="0" departLane="27082628#2_0" departPos="0.00" departSpeed="0.00" departDelay="0" arrival="143" arrivalLane="27082617#4_0" arrivalPos="10.21" arrivalSpeed="13.50" duration="143" routeLength="1162.50" waitSteps="34" rerouteNo="0" devices="" vtype="DEFAULT_VEHTYPE" vaporized=""></tripinfo>