<?xml version="1.0"?>

<!-- generated on Tue Jun  8 14:31:52 2010 by SUMO sumo Version 0.11.1
<configuration>

    <input>
        <net-file value="condor/tl2/bahia-rivadavia/rivadavia.net.xml"/>
        <route-files value="condor/tl2/bahia-rivadavia/rivadavia.rou.xml"/>
        <additional-files value="condor/tl2/bahia-rivadavia/tl-logic.add.xml"/>
    </input>

    <output>
        <netstate-dump value="condor/tl2/bahia-rivadavia/rivadavia.sumo.tr"/>
        <emissions-output value="condor/tl2/bahia-rivadavia/output-emissions.xml"/>
        <tripinfo-output value="condor/tl2/bahia-rivadavia/output-tripinfos.xml"/>
        <vehroute-output value="condor/tl2/bahia-rivadavia/output-vehroutes.xml"/>
    </output>

    <time>
        <begin value="0"/>
        <end value="500"/>
    </time>

    <processing>
        <route-steps value="-1"/>
        <time-to-teleport value="-1"/>
    </processing>

    <report>
        <print-options value="false"/>
        <suppress-warnings value="true"/>
    </report>

    <random_number>
        <srand value="23423"/>
    </random_number>

    <gui_only>
        <gui-settings-file value=""/>
    </gui_only>

</configuration>
-->

<emissions>
    <emission-state time="0" loaded="502" emitted="148" running="148" waiting="354" ended="0" meanWaitingTime="0.00" meanTravelTime="-1.00" duration="0" />
    <emission-state time="1" loaded="502" emitted="154" running="154" waiting="348" ended="0" meanWaitingTime="0.04" meanTravelTime="-1.00" duration="8" />
    <emission-state time="2" loaded="502" emitted="155" running="155" waiting="347" ended="0" meanWaitingTime="0.05" meanTravelTime="-1.00" duration="6" />
    <emission-state time="3" loaded="502" emitted="277" running="277" waiting="225" ended="0" meanWaitingTime="1.35" meanTravelTime="-1.00" duration="5" />
    <emission-state time="4" loaded="502" emitted="284" running="284" waiting="218" ended="0" meanWaitingTime="1.42" meanTravelTime="-1.00" duration="6" />
    <emission-state time="5" loaded="502" emitted="288" running="288" waiting="214" ended="0" meanWaitingTime="1.47" meanTravelTime="-1.00" duration="5" />
    <emission-state time="6" loaded="502" emitted="373" running="373" waiting="129" ended="0" meanWaitingTime="2.50" meanTravelTime="-1.00" duration="4" />
    <emission-state time="7" loaded="502" emitted="375" running="375" waiting="127" ended="0" meanWaitingTime="2.52" meanTravelTime="-1.00" duration="6" />
    <emission-state time="8" loaded="502" emitted="379" running="379" waiting="123" ended="0" meanWaitingTime="2.58" meanTravelTime="-1.00" duration="4" />
    <emission-state time="9" loaded="502" emitted="423" running="423" waiting="79" ended="0" meanWaitingTime="3.25" meanTravelTime="-1.00" duration="5" />
    <emission-state time="10" loaded="502" emitted="428" running="428" waiting="74" ended="0" meanWaitingTime="3.33" meanTravelTime="-1.00" duration="5" />
    <emission-state time="11" loaded="502" emitted="428" running="428" waiting="74" ended="0" meanWaitingTime="3.33" meanTravelTime="-1.00" duration="4" />
    <emission-state time="12" loaded="502" emitted="454" running="454" waiting="48" ended="0" meanWaitingTime="3.82" meanTravelTime="-1.00" duration="5" />
    <emission-state time="13" loaded="502" emitted="456" running="456" waiting="46" ended="0" meanWaitingTime="3.86" meanTravelTime="-1.00" duration="5" />
    <emission-state time="14" loaded="502" emitted="456" running="456" waiting="46" ended="0" meanWaitingTime="3.86" meanTravelTime="-1.00" duration="4" />
    <emission-state time="15" loaded="502" emitted="463" running="463" waiting="39" ended="0" meanWaitingTime="4.03" meanTravelTime="-1.00" duration="5" />
    <emission-state time="16" loaded="502" emitted="464" running="464" waiting="38" ended="0" meanWaitingTime="4.06" meanTravelTime="-1.00" duration="4" />
    <emission-state time="17" loaded="502" emitted="464" running="464" waiting="38" ended="0" meanWaitingTime="4.06" meanTravelTime="-1.00" duration="5" />
    <emission-state time="18" loaded="502" emitted="466" running="466" waiting="36" ended="0" meanWaitingTime="4.12" meanTravelTime="-1.00" duration="5" />
    <emission-state time="19" loaded="502" emitted="469" running="469" waiting="33" ended="0" meanWaitingTime="4.21" meanTravelTime="-1.00" duration="4" />
    <emission-state time="20" loaded="502" emitted="471" running="470" waiting="31" ended="1" meanWaitingTime="4.28" meanTravelTime="17.00" duration="5" />
    <emission-state time="21" loaded="502" emitted="474" running="473" waiting="28" ended="1" meanWaitingTime="4.39" meanTravelTime="17.00" duration="5" />
    <emission-state time="22" loaded="502" emitted="476" running="475" waiting="26" ended="1" meanWaitingTime="4.46" meanTravelTime="17.00" duration="4" />
    <emission-state time="23" loaded="502" emitted="476" running="475" waiting="26" ended="1" meanWaitingTime="4.46" meanTravelTime="17.00" duration="5" />
    <emission-state time="24" loaded="502" emitted="479" running="478" waiting="23" ended="1" meanWaitingTime="4.58" meanTravelTime="17.00" duration="5" />
    <emission-state time="25" loaded="502" emitted="480" running="479" waiting="22" ended="1" meanWaitingTime="4.62" meanTravelTime="17.00" duration="4" />
    <emission-state time="26" loaded="502" emitted="480" running="478" waiting="22" ended="2" meanWaitingTime="4.62" meanTravelTime="21.50" duration="5" />
    <emission-state time="27" loaded="502" emitted="483" running="481" waiting="19" ended="2" meanWaitingTime="4.76" meanTravelTime="21.50" duration="4" />
    <emission-state time="28" loaded="502" emitted="483" running="481" waiting="19" ended="2" meanWaitingTime="4.76" meanTravelTime="21.50" duration="5" />
    <emission-state time="29" loaded="502" emitted="483" running="481" waiting="19" ended="2" meanWaitingTime="4.76" meanTravelTime="21.50" duration="4" />
    <emission-state time="30" loaded="502" emitted="485" running="483" waiting="17" ended="2" meanWaitingTime="4.87" meanTravelTime="21.50" duration="5" />
    <emission-state time="31" loaded="502" emitted="487" running="485" waiting="15" ended="2" meanWaitingTime="4.98" meanTravelTime="21.50" duration="4" />
    <emission-state time="32" loaded="502" emitted="488" running="485" waiting="14" ended="3" meanWaitingTime="5.03" meanTravelTime="25.00" duration="5" />
    <emission-state time="33" loaded="502" emitted="490" running="487" waiting="12" ended="3" meanWaitingTime="5.14" meanTravelTime="25.00" duration="4" />
    <emission-state time="34" loaded="502" emitted="492" running="488" waiting="10" ended="4" meanWaitingTime="5.26" meanTravelTime="26.50" duration="5" />
    <emission-state time="35" loaded="502" emitted="492" running="488" waiting="10" ended="4" meanWaitingTime="5.26" meanTravelTime="26.50" duration="4" />
    <emission-state time="36" loaded="502" emitted="493" running="489" waiting="9" ended="4" meanWaitingTime="5.32" meanTravelTime="26.50" duration="4" />
    <emission-state time="37" loaded="502" emitted="493" running="489" waiting="9" ended="4" meanWaitingTime="5.32" meanTravelTime="26.50" duration="4" />
    <emission-state time="38" loaded="502" emitted="493" running="488" waiting="9" ended="5" meanWaitingTime="5.32" meanTravelTime="28.80" duration="5" />
    <emission-state time="39" loaded="502" emitted="494" running="489" waiting="8" ended="5" meanWaitingTime="5.39" meanTravelTime="28.80" duration="4" />
    <emission-state time="40" loaded="502" emitted="494" running="488" waiting="8" ended="6" meanWaitingTime="5.39" meanTravelTime="30.67" duration="4" />
    <emission-state time="41" loaded="502" emitted="494" running="487" waiting="8" ended="7" meanWaitingTime="5.39" meanTravelTime="32.14" duration="4" />
    <emission-state time="42" loaded="502" emitted="494" running="486" waiting="8" ended="8" meanWaitingTime="5.39" meanTravelTime="32.25" duration="4" />
    <emission-state time="43" loaded="502" emitted="494" running="486" waiting="8" ended="8" meanWaitingTime="5.39" meanTravelTime="32.25" duration="4" />
    <emission-state time="44" loaded="502" emitted="494" running="486" waiting="8" ended="8" meanWaitingTime="5.39" meanTravelTime="32.25" duration="4" />
    <emission-state time="45" loaded="502" emitted="494" running="486" waiting="8" ended="8" meanWaitingTime="5.39" meanTravelTime="32.25" duration="4" />
    <emission-state time="46" loaded="502" emitted="496" running="488" waiting="6" ended="8" meanWaitingTime="5.56" meanTravelTime="32.25" duration="4" />
    <emission-state time="47" loaded="502" emitted="496" running="488" waiting="6" ended="8" meanWaitingTime="5.56" meanTravelTime="32.25" duration="4" />
    <emission-state time="48" loaded="502" emitted="496" running="488" waiting="6" ended="8" meanWaitingTime="5.56" meanTravelTime="32.25" duration="4" />
    <emission-state time="49" loaded="502" emitted="498" running="490" waiting="4" ended="8" meanWaitingTime="5.73" meanTravelTime="32.25" duration="5" />
    <emission-state time="50" loaded="502" emitted="498" running="489" waiting="4" ended="9" meanWaitingTime="5.73" meanTravelTime="33.56" duration="4" />
    <emission-state time="51" loaded="502" emitted="498" running="489" waiting="4" ended="9" meanWaitingTime="5.73" meanTravelTime="33.56" duration="4" />
    <emission-state time="52" loaded="502" emitted="499" running="488" waiting="3" ended="11" meanWaitingTime="5.82" meanTravelTime="36.27" duration="4" />
    <emission-state time="53" loaded="502" emitted="499" running="488" waiting="3" ended="11" meanWaitingTime="5.82" meanTravelTime="36.27" duration="4" />
    <emission-state time="54" loaded="502" emitted="499" running="487" waiting="3" ended="12" meanWaitingTime="5.82" meanTravelTime="37.25" duration="5" />
    <emission-state time="55" loaded="502" emitted="499" running="486" waiting="3" ended="13" meanWaitingTime="5.82" meanTravelTime="38.15" duration="4" />
    <emission-state time="56" loaded="502" emitted="499" running="486" waiting="3" ended="13" meanWaitingTime="5.82" meanTravelTime="38.15" duration="4" />
    <emission-state time="57" loaded="502" emitted="499" running="485" waiting="3" ended="14" meanWaitingTime="5.82" meanTravelTime="39.29" duration="4" />
    <emission-state time="58" loaded="502" emitted="499" running="484" waiting="3" ended="15" meanWaitingTime="5.82" meanTravelTime="39.87" duration="4" />
    <emission-state time="59" loaded="502" emitted="499" running="484" waiting="3" ended="15" meanWaitingTime="5.82" meanTravelTime="39.87" duration="4" />
    <emission-state time="60" loaded="502" emitted="499" running="484" waiting="3" ended="15" meanWaitingTime="5.82" meanTravelTime="39.87" duration="4" />
    <emission-state time="61" loaded="502" emitted="499" running="484" waiting="3" ended="15" meanWaitingTime="5.82" meanTravelTime="39.87" duration="5" />
    <emission-state time="62" loaded="502" emitted="499" running="484" waiting="3" ended="15" meanWaitingTime="5.82" meanTravelTime="39.87" duration="4" />
    <emission-state time="63" loaded="502" emitted="499" running="483" waiting="3" ended="16" meanWaitingTime="5.82" meanTravelTime="41.31" duration="4" />
    <emission-state time="64" loaded="502" emitted="499" running="483" waiting="3" ended="16" meanWaitingTime="5.82" meanTravelTime="41.31" duration="3" />
    <emission-state time="65" loaded="502" emitted="499" running="483" waiting="3" ended="16" meanWaitingTime="5.82" meanTravelTime="41.31" duration="3" />
    <emission-state time="66" loaded="502" emitted="499" running="481" waiting="3" ended="18" meanWaitingTime="5.82" meanTravelTime="43.06" duration="4" />
    <emission-state time="67" loaded="502" emitted="499" running="481" waiting="3" ended="18" meanWaitingTime="5.82" meanTravelTime="43.06" duration="4" />
    <emission-state time="68" loaded="502" emitted="499" running="481" waiting="3" ended="18" meanWaitingTime="5.82" meanTravelTime="43.06" duration="4" />
    <emission-state time="69" loaded="502" emitted="499" running="481" waiting="3" ended="18" meanWaitingTime="5.82" meanTravelTime="43.06" duration="4" />
    <emission-state time="70" loaded="502" emitted="499" running="481" waiting="3" ended="18" meanWaitingTime="5.82" meanTravelTime="43.06" duration="4" />
    <emission-state time="71" loaded="502" emitted="499" running="480" waiting="3" ended="19" meanWaitingTime="5.82" meanTravelTime="44.53" duration="4" />
    <emission-state time="72" loaded="502" emitted="499" running="480" waiting="3" ended="19" meanWaitingTime="5.82" meanTravelTime="44.53" duration="4" />
    <emission-state time="73" loaded="502" emitted="499" running="480" waiting="3" ended="19" meanWaitingTime="5.82" meanTravelTime="44.53" duration="4" />
    <emission-state time="74" loaded="502" emitted="499" running="480" waiting="3" ended="19" meanWaitingTime="5.82" meanTravelTime="44.53" duration="4" />
    <emission-state time="75" loaded="502" emitted="499" running="479" waiting="3" ended="20" meanWaitingTime="5.82" meanTravelTime="45.90" duration="3" />
    <emission-state time="76" loaded="502" emitted="499" running="478" waiting="3" ended="21" meanWaitingTime="5.82" meanTravelTime="47.05" duration="3" />
    <emission-state time="77" loaded="502" emitted="499" running="478" waiting="3" ended="21" meanWaitingTime="5.82" meanTravelTime="47.05" duration="4" />
    <emission-state time="78" loaded="502" emitted="499" running="478" waiting="3" ended="21" meanWaitingTime="5.82" meanTravelTime="47.05" duration="4" />
    <emission-state time="79" loaded="502" emitted="499" running="477" waiting="3" ended="22" meanWaitingTime="5.82" meanTravelTime="48.50" duration="4" />
    <emission-state time="80" loaded="502" emitted="499" running="476" waiting="3" ended="23" meanWaitingTime="5.82" meanTravelTime="49.74" duration="4" />
    <emission-state time="81" loaded="502" emitted="499" running="476" waiting="3" ended="23" meanWaitingTime="5.82" meanTravelTime="49.74" duration="3" />
    <emission-state time="82" loaded="502" emitted="499" running="476" waiting="3" ended="23" meanWaitingTime="5.82" meanTravelTime="49.74" duration="4" />
    <emission-state time="83" loaded="502" emitted="499" running="476" waiting="3" ended="23" meanWaitingTime="5.82" meanTravelTime="49.74" duration="4" />
    <emission-state time="84" loaded="502" emitted="499" running="476" waiting="3" ended="23" meanWaitingTime="5.82" meanTravelTime="49.74" duration="4" />
    <emission-state time="85" loaded="502" emitted="499" running="474" waiting="3" ended="25" meanWaitingTime="5.82" meanTravelTime="51.96" duration="4" />
    <emission-state time="86" loaded="502" emitted="499" running="473" waiting="3" ended="26" meanWaitingTime="5.82" meanTravelTime="53.15" duration="3" />
    <emission-state time="87" loaded="502" emitted="499" running="473" waiting="3" ended="26" meanWaitingTime="5.82" meanTravelTime="53.15" duration="3" />
    <emission-state time="88" loaded="502" emitted="499" running="472" waiting="3" ended="27" meanWaitingTime="5.82" meanTravelTime="54.44" duration="4" />
    <emission-state time="89" loaded="502" emitted="499" running="472" waiting="3" ended="27" meanWaitingTime="5.82" meanTravelTime="54.44" duration="4" />
    <emission-state time="90" loaded="502" emitted="499" running="472" waiting="3" ended="27" meanWaitingTime="5.82" meanTravelTime="54.44" duration="4" />
    <emission-state time="91" loaded="502" emitted="499" running="472" waiting="3" ended="27" meanWaitingTime="5.82" meanTravelTime="54.44" duration="3" />
    <emission-state time="92" loaded="502" emitted="499" running="470" waiting="3" ended="29" meanWaitingTime="5.82" meanTravelTime="56.93" duration="4" />
    <emission-state time="93" loaded="502" emitted="499" running="470" waiting="3" ended="29" meanWaitingTime="5.82" meanTravelTime="56.93" duration="4" />
    <emission-state time="94" loaded="502" emitted="499" running="469" waiting="3" ended="30" meanWaitingTime="5.82" meanTravelTime="57.97" duration="3" />
    <emission-state time="95" loaded="502" emitted="499" running="469" waiting="3" ended="30" meanWaitingTime="5.82" meanTravelTime="57.97" duration="4" />
    <emission-state time="96" loaded="502" emitted="499" running="468" waiting="3" ended="31" meanWaitingTime="5.82" meanTravelTime="59.19" duration="4" />
    <emission-state time="97" loaded="502" emitted="499" running="467" waiting="3" ended="32" meanWaitingTime="5.82" meanTravelTime="60.28" duration="4" />
    <emission-state time="98" loaded="502" emitted="499" running="465" waiting="3" ended="34" meanWaitingTime="5.82" meanTravelTime="62.24" duration="3" />
    <emission-state time="99" loaded="502" emitted="499" running="464" waiting="3" ended="35" meanWaitingTime="5.82" meanTravelTime="62.94" duration="4" />
    <emission-state time="100" loaded="502" emitted="499" running="464" waiting="3" ended="35" meanWaitingTime="5.82" meanTravelTime="62.94" duration="4" />
    <emission-state time="101" loaded="502" emitted="499" running="463" waiting="3" ended="36" meanWaitingTime="5.82" meanTravelTime="64.00" duration="3" />
    <emission-state time="102" loaded="502" emitted="499" running="463" waiting="3" ended="36" meanWaitingTime="5.82" meanTravelTime="64.00" duration="4" />
    <emission-state time="103" loaded="502" emitted="499" running="463" waiting="3" ended="36" meanWaitingTime="5.82" meanTravelTime="64.00" duration="4" />
    <emission-state time="104" loaded="502" emitted="499" running="462" waiting="3" ended="37" meanWaitingTime="5.82" meanTravelTime="64.86" duration="3" />
    <emission-state time="105" loaded="502" emitted="499" running="461" waiting="3" ended="38" meanWaitingTime="5.82" meanTravelTime="65.84" duration="4" />
    <emission-state time="106" loaded="502" emitted="499" running="461" waiting="3" ended="38" meanWaitingTime="5.82" meanTravelTime="65.84" duration="4" />
    <emission-state time="107" loaded="502" emitted="499" running="461" waiting="3" ended="38" meanWaitingTime="5.82" meanTravelTime="65.84" duration="3" />
    <emission-state time="108" loaded="502" emitted="499" running="460" waiting="3" ended="39" meanWaitingTime="5.82" meanTravelTime="66.92" duration="4" />
    <emission-state time="109" loaded="502" emitted="499" running="459" waiting="3" ended="40" meanWaitingTime="5.82" meanTravelTime="67.82" duration="4" />
    <emission-state time="110" loaded="502" emitted="499" running="459" waiting="3" ended="40" meanWaitingTime="5.82" meanTravelTime="67.82" duration="3" />
    <emission-state time="111" loaded="502" emitted="499" running="457" waiting="3" ended="42" meanWaitingTime="5.82" meanTravelTime="69.60" duration="4" />
    <emission-state time="112" loaded="502" emitted="499" running="456" waiting="3" ended="43" meanWaitingTime="5.82" meanTravelTime="70.44" duration="3" />
    <emission-state time="113" loaded="502" emitted="499" running="456" waiting="3" ended="43" meanWaitingTime="5.82" meanTravelTime="70.44" duration="4" />
    <emission-state time="114" loaded="502" emitted="499" running="456" waiting="3" ended="43" meanWaitingTime="5.82" meanTravelTime="70.44" duration="4" />
    <emission-state time="115" loaded="502" emitted="499" running="455" waiting="3" ended="44" meanWaitingTime="5.82" meanTravelTime="71.39" duration="3" />
    <emission-state time="116" loaded="502" emitted="499" running="455" waiting="3" ended="44" meanWaitingTime="5.82" meanTravelTime="71.39" duration="4" />
    <emission-state time="117" loaded="502" emitted="499" running="454" waiting="3" ended="45" meanWaitingTime="5.82" meanTravelTime="72.20" duration="4" />
    <emission-state time="118" loaded="502" emitted="499" running="453" waiting="3" ended="46" meanWaitingTime="5.82" meanTravelTime="73.13" duration="3" />
    <emission-state time="119" loaded="502" emitted="499" running="453" waiting="3" ended="46" meanWaitingTime="5.82" meanTravelTime="73.13" duration="4" />
    <emission-state time="120" loaded="502" emitted="499" running="452" waiting="3" ended="47" meanWaitingTime="5.82" meanTravelTime="74.06" duration="4" />
    <emission-state time="121" loaded="502" emitted="499" running="452" waiting="3" ended="47" meanWaitingTime="5.82" meanTravelTime="74.06" duration="3" />
    <emission-state time="122" loaded="502" emitted="499" running="450" waiting="3" ended="49" meanWaitingTime="5.82" meanTravelTime="75.88" duration="4" />
    <emission-state time="123" loaded="502" emitted="499" running="447" waiting="3" ended="52" meanWaitingTime="5.82" meanTravelTime="78.19" duration="3" />
    <emission-state time="124" loaded="502" emitted="499" running="446" waiting="3" ended="53" meanWaitingTime="5.82" meanTravelTime="79.06" duration="4" />
    <emission-state time="125" loaded="502" emitted="500" running="445" waiting="2" ended="55" meanWaitingTime="6.06" meanTravelTime="80.51" duration="4" />
    <emission-state time="126" loaded="502" emitted="501" running="444" waiting="1" ended="57" meanWaitingTime="6.30" meanTravelTime="81.53" duration="3" />
    <emission-state time="127" loaded="502" emitted="501" running="444" waiting="1" ended="57" meanWaitingTime="6.30" meanTravelTime="81.53" duration="4" />
    <emission-state time="128" loaded="502" emitted="501" running="444" waiting="1" ended="57" meanWaitingTime="6.30" meanTravelTime="81.53" duration="3" />
    <emission-state time="129" loaded="502" emitted="502" running="445" waiting="0" ended="57" meanWaitingTime="6.55" meanTravelTime="81.53" duration="4" />
    <emission-state time="130" loaded="502" emitted="502" running="444" waiting="0" ended="58" meanWaitingTime="6.55" meanTravelTime="82.26" duration="3" />
    <emission-state time="131" loaded="502" emitted="502" running="443" waiting="0" ended="59" meanWaitingTime="6.55" meanTravelTime="82.93" duration="4" />
    <emission-state time="132" loaded="502" emitted="502" running="442" waiting="0" ended="60" meanWaitingTime="6.55" meanTravelTime="83.60" duration="3" />
    <emission-state time="133" loaded="502" emitted="502" running="442" waiting="0" ended="60" meanWaitingTime="6.55" meanTravelTime="83.60" duration="4" />
    <emission-state time="134" loaded="502" emitted="502" running="442" waiting="0" ended="60" meanWaitingTime="6.55" meanTravelTime="83.60" duration="3" />
    <emission-state time="135" loaded="502" emitted="502" running="441" waiting="0" ended="61" meanWaitingTime="6.55" meanTravelTime="84.25" duration="3" />
    <emission-state time="136" loaded="502" emitted="502" running="440" waiting="0" ended="62" meanWaitingTime="6.55" meanTravelTime="85.08" duration="4" />
    <emission-state time="137" loaded="502" emitted="502" running="440" waiting="0" ended="62" meanWaitingTime="6.55" meanTravelTime="85.08" duration="3" />
    <emission-state time="138" loaded="502" emitted="502" running="439" waiting="0" ended="63" meanWaitingTime="6.55" meanTravelTime="85.87" duration="4" />
    <emission-state time="139" loaded="502" emitted="502" running="437" waiting="0" ended="65" meanWaitingTime="6.55" meanTravelTime="86.95" duration="3" />
    <emission-state time="140" loaded="502" emitted="502" running="437" waiting="0" ended="65" meanWaitingTime="6.55" meanTravelTime="86.95" duration="3" />
    <emission-state time="141" loaded="502" emitted="502" running="437" waiting="0" ended="65" meanWaitingTime="6.55" meanTravelTime="86.95" duration="3" />
    <emission-state time="142" loaded="502" emitted="502" running="437" waiting="0" ended="65" meanWaitingTime="6.55" meanTravelTime="86.95" duration="4" />
    <emission-state time="143" loaded="502" emitted="502" running="437" waiting="0" ended="65" meanWaitingTime="6.55" meanTravelTime="86.95" duration="3" />
    <emission-state time="144" loaded="502" emitted="502" running="437" waiting="0" ended="65" meanWaitingTime="6.55" meanTravelTime="86.95" duration="3" />
    <emission-state time="145" loaded="502" emitted="502" running="437" waiting="0" ended="65" meanWaitingTime="6.55" meanTravelTime="86.95" duration="4" />
    <emission-state time="146" loaded="502" emitted="502" running="437" waiting="0" ended="65" meanWaitingTime="6.55" meanTravelTime="86.95" duration="3" />
    <emission-state time="147" loaded="502" emitted="502" running="437" waiting="0" ended="65" meanWaitingTime="6.55" meanTravelTime="86.95" duration="4" />
    <emission-state time="148" loaded="502" emitted="502" running="436" waiting="0" ended="66" meanWaitingTime="6.55" meanTravelTime="87.47" duration="3" />
    <emission-state time="149" loaded="502" emitted="502" running="436" waiting="0" ended="66" meanWaitingTime="6.55" meanTravelTime="87.47" duration="3" />
    <emission-state time="150" loaded="502" emitted="502" running="436" waiting="0" ended="66" meanWaitingTime="6.55" meanTravelTime="87.47" duration="4" />
    <emission-state time="151" loaded="502" emitted="502" running="435" waiting="0" ended="67" meanWaitingTime="6.55" meanTravelTime="87.91" duration="3" />
    <emission-state time="152" loaded="502" emitted="502" running="435" waiting="0" ended="67" meanWaitingTime="6.55" meanTravelTime="87.91" duration="3" />
    <emission-state time="153" loaded="502" emitted="502" running="435" waiting="0" ended="67" meanWaitingTime="6.55" meanTravelTime="87.91" duration="4" />
    <emission-state time="154" loaded="502" emitted="502" running="435" waiting="0" ended="67" meanWaitingTime="6.55" meanTravelTime="87.91" duration="3" />
    <emission-state time="155" loaded="502" emitted="502" running="435" waiting="0" ended="67" meanWaitingTime="6.55" meanTravelTime="87.91" duration="3" />
    <emission-state time="156" loaded="502" emitted="502" running="434" waiting="0" ended="68" meanWaitingTime="6.55" meanTravelTime="88.74" duration="4" />
    <emission-state time="157" loaded="502" emitted="502" running="432" waiting="0" ended="70" meanWaitingTime="6.55" meanTravelTime="90.54" duration="3" />
    <emission-state time="158" loaded="502" emitted="502" running="431" waiting="0" ended="71" meanWaitingTime="6.55" meanTravelTime="91.49" duration="3" />
    <emission-state time="159" loaded="502" emitted="502" running="430" waiting="0" ended="72" meanWaitingTime="6.55" meanTravelTime="92.35" duration="4" />
    <emission-state time="160" loaded="502" emitted="502" running="430" waiting="0" ended="72" meanWaitingTime="6.55" meanTravelTime="92.35" duration="3" />
    <emission-state time="161" loaded="502" emitted="502" running="430" waiting="0" ended="72" meanWaitingTime="6.55" meanTravelTime="92.35" duration="3" />
    <emission-state time="162" loaded="502" emitted="502" running="430" waiting="0" ended="72" meanWaitingTime="6.55" meanTravelTime="92.35" duration="4" />
    <emission-state time="163" loaded="502" emitted="502" running="429" waiting="0" ended="73" meanWaitingTime="6.55" meanTravelTime="93.27" duration="3" />
    <emission-state time="164" loaded="502" emitted="502" running="428" waiting="0" ended="74" meanWaitingTime="6.55" meanTravelTime="93.91" duration="3" />
    <emission-state time="165" loaded="502" emitted="502" running="428" waiting="0" ended="74" meanWaitingTime="6.55" meanTravelTime="93.91" duration="3" />
    <emission-state time="166" loaded="502" emitted="502" running="428" waiting="0" ended="74" meanWaitingTime="6.55" meanTravelTime="93.91" duration="4" />
    <emission-state time="167" loaded="502" emitted="502" running="428" waiting="0" ended="74" meanWaitingTime="6.55" meanTravelTime="93.91" duration="3" />
    <emission-state time="168" loaded="502" emitted="502" running="428" waiting="0" ended="74" meanWaitingTime="6.55" meanTravelTime="93.91" duration="3" />
    <emission-state time="169" loaded="502" emitted="502" running="427" waiting="0" ended="75" meanWaitingTime="6.55" meanTravelTime="94.87" duration="3" />
    <emission-state time="170" loaded="502" emitted="502" running="426" waiting="0" ended="76" meanWaitingTime="6.55" meanTravelTime="95.86" duration="4" />
    <emission-state time="171" loaded="502" emitted="502" running="426" waiting="0" ended="76" meanWaitingTime="6.55" meanTravelTime="95.86" duration="3" />
    <emission-state time="172" loaded="502" emitted="502" running="425" waiting="0" ended="77" meanWaitingTime="6.55" meanTravelTime="96.81" duration="3" />
    <emission-state time="173" loaded="502" emitted="502" running="425" waiting="0" ended="77" meanWaitingTime="6.55" meanTravelTime="96.81" duration="4" />
    <emission-state time="174" loaded="502" emitted="502" running="425" waiting="0" ended="77" meanWaitingTime="6.55" meanTravelTime="96.81" duration="3" />
    <emission-state time="175" loaded="502" emitted="502" running="425" waiting="0" ended="77" meanWaitingTime="6.55" meanTravelTime="96.81" duration="3" />
    <emission-state time="176" loaded="502" emitted="502" running="424" waiting="0" ended="78" meanWaitingTime="6.55" meanTravelTime="97.78" duration="3" />
    <emission-state time="177" loaded="502" emitted="502" running="423" waiting="0" ended="79" meanWaitingTime="6.55" meanTravelTime="98.75" duration="4" />
    <emission-state time="178" loaded="502" emitted="502" running="422" waiting="0" ended="80" meanWaitingTime="6.55" meanTravelTime="99.72" duration="3" />
    <emission-state time="179" loaded="502" emitted="502" running="422" waiting="0" ended="80" meanWaitingTime="6.55" meanTravelTime="99.72" duration="3" />
    <emission-state time="180" loaded="502" emitted="502" running="421" waiting="0" ended="81" meanWaitingTime="6.55" meanTravelTime="100.68" duration="3" />
    <emission-state time="181" loaded="502" emitted="502" running="420" waiting="0" ended="82" meanWaitingTime="6.55" meanTravelTime="101.66" duration="3" />
    <emission-state time="182" loaded="502" emitted="502" running="420" waiting="0" ended="82" meanWaitingTime="6.55" meanTravelTime="101.66" duration="3" />
    <emission-state time="183" loaded="502" emitted="502" running="416" waiting="0" ended="86" meanWaitingTime="6.55" meanTravelTime="104.87" duration="4" />