<?xml version="1.0"?>

<!-- generated on Tue Jun  8 14:31:53 2010 by SUMO sumo Version 0.11.1
<configuration>

    <input>
        <net-file value="condor/tl2/bahia-rivadavia/rivadavia.net.xml"/>
        <route-files value="condor/tl2/bahia-rivadavia/rivadavia.rou.xml"/>
        <additional-files value="condor/tl2/bahia-rivadavia/tl-logic.add.xml"/>
    </input>

    <output>
        <netstate-dump value="condor/tl2/bahia-rivadavia/rivadavia.sumo.tr"/>
        <emissions-output value="condor/tl2/bahia-rivadavia/output-emissions.xml"/>
        <tripinfo-output value="condor/tl2/bahia-rivadavia/output-tripinfos.xml"/>
        <vehroute-output value="condor/tl2/bahia-rivadavia/output-vehroutes.xml"/>
    </output>

    <time>
        <begin value="0"/>
        <end value="500"/>
    </time>

    <processing>
        <route-steps value="-1"/>
        <time-to-teleport value="-1"/>
    </processing>

    <report>
        <print-options value="false"/>
        <suppress-warnings value="true"/>
    </report>

    <random_number>
        <srand value="23423"/>
    </random_number>

    <gui_only>
        <gui-settings-file value=""/>
    </gui_only>

</configuration>
-->

<tripinfos>
    <tripinfo id="Rand68" depart="3" departLane="27082628#1_0" departPos="0.00" departSpeed="0.00" departDelay="3" arrival="20" arrivalLane="28813885#1_0" arrivalPos="3.72" arrivalSpeed="6.90" duration="17" routeLength="149.25" waitSteps="0" rerouteNo="0" devices="" vtype="DEFAULT_VEHTYPE" vaporized=""></tripinfo>
    <tripinfo id="Rand204" depart="0" departLane="27082628#3_0" departPos="0.00" departSpeed="0.00" departDelay="0" arrival="26" arrivalLane="-27082628#4_1" arrivalPos="6.55" arrivalSpeed="7.72" duration="26" routeLength="354.06" waitSteps="0" rerouteNo="0" devices="" vtype="DEFAULT_VEHTYPE" vaporized=""></tripinfo>
    <tripinfo id="Rand582" depart="0" departLane="27082628#2_0" departPos="0.00" departSpeed="0.00" departDelay="0" arrival="32" arrivalLane="27082628#5_1" arrivalPos="8.39" arrivalSpeed="24.96" duration="32" routeLength="526.41" waitSteps="0" rerouteNo="0" devices="" vtype="DEFAULT_VEHTYPE" vaporized=""></tripinfo>
    <tripinfo id="Rand263" depart="3" departLane="27053106#3_0" departPos="0.00" departSpeed="0.00" departDelay="3" arrival="34" arrivalLane="27053106#4_0" arrivalPos="4.17" arrivalSpeed="7.92" duration="31" routeLength="194.51" waitSteps="7" rerouteNo="0" devices="" vtype="DEFAULT_VEHTYPE" vaporized=""></tripinfo>
    <tripinfo id="Rand128" depart="0" departLane="27052071#0_0" departPos="0.00" departSpeed="0.00" departDelay="0" arrival="38" arrivalLane="27053171#1_0" arrivalPos="6.34" arrivalSpeed="8.65" duration="38" routeLength="333.35" waitSteps="0" rerouteNo="0" devices="" vtype="DEFAULT_VEHTYPE" vaporized=""></tripinfo>
    <tripinfo id="Rand173" depart="0" departLane="28629700#2_0" departPos="0.00" departSpeed="0.00" departDelay="0" arrival="40" arrivalLane="27052069#1_0" arrivalPos="5.84" arrivalSpeed="6.33" duration="40" routeLength="297.49" waitSteps="0" rerouteNo="0" devices="" vtype="DEFAULT_VEHTYPE" vaporized=""></tripinfo>
    <tripinfo id="Rand110" depart="0" departLane="27052069#0_0" departPos="0.00" departSpeed="0.00" departDelay="0" arrival="41" arrivalLane="27053171#1_0" arrivalPos="4.91" arrivalSpeed="7.12" duration="41" routeLength="302.82" waitSteps="1" rerouteNo="0" devices="" vtype="DEFAULT_VEHTYPE" vaporized=""></tripinfo>
    <tripinfo id="Rand418" depart="9" departLane="27078417#3_0" departPos="0.00" departSpeed="0.00" departDelay="9" arrival="42" arrivalLane="27077992#1_0" arrivalPos="8.67" arrivalSpeed="13.18" duration="33" routeLength="381.23" waitSteps="0" rerouteNo="0" devices="" vtype="DEFAULT_VEHTYPE" vaporized=""></tripinfo>
    <tripinfo id="Rand538" depart="6" departLane="28813885#2_0" departPos="0.00" departSpeed="0.00" departDelay="6" arrival="50" arrivalLane="27082600#4_0" arrivalPos="9.05" arrivalSpeed="13.08" duration="44" routeLength="551.33" waitSteps="0" rerouteNo="0" devices="" vtype="DEFAULT_VEHTYPE" vaporized=""></tripinfo>
    <tripinfo id="Rand351" depart="6" departLane="27053786#3_0" departPos="0.00" departSpeed="0.00" departDelay="6" arrival="52" arrivalLane="27053790#1_0" arrivalPos="5.51" arrivalSpeed="13.67" duration="46" routeLength="558.25" waitSteps="0" rerouteNo="0" devices="" vtype="DEFAULT_VEHTYPE" vaporized=""></tripinfo>
    <tripinfo id="Rand255" depart="1" departLane="-27082628#1_0" departPos="0.00" departSpeed="0.00" departDelay="1" arrival="52" arrivalLane="27082629#5_0" arrivalPos="2.13" arrivalSpeed="10.10" duration="51" routeLength="330.37" waitSteps="15" rerouteNo="0" devices="" vtype="DEFAULT_VEHTYPE" vaporized=""></tripinfo>
    <tripinfo id="Rand335" depart="6" departLane="27082625#1_0" departPos="0.00" departSpeed="0.00" departDelay="6" arrival="54" arrivalLane="27053791#4_0" arrivalPos="10.94" arrivalSpeed="12.28" duration="48" routeLength="414.46" waitSteps="0" rerouteNo="0" devices="" vtype="DEFAULT_VEHTYPE" vaporized=""></tripinfo>
    <tripinfo id="Rand555" depart="6" departLane="27082617#1_0" departPos="0.00" departSpeed="0.00" departDelay="6" arrival="55" arrivalLane="27082616#5_0" arrivalPos="12.51" arrivalSpeed="13.27" duration="49" routeLength="597.17" waitSteps="0" rerouteNo="0" devices="" vtype="DEFAULT_VEHTYPE" vaporized=""></tripinfo>
    <tripinfo id="Rand485" depart="3" departLane="27083337#2_0" departPos="0.00" departSpeed="0.00" departDelay="3" arrival="57" arrivalLane="27053171#0_0" arrivalPos="7.76" arrivalSpeed="11.81" duration="54" routeLength="353.83" waitSteps="16" rerouteNo="0" devices="" vtype="DEFAULT_VEHTYPE" vaporized=""></tripinfo>
    <tripinfo id="Rand4" depart="10" departLane="27053791#3_0" departPos="0.00" departSpeed="0.00" departDelay="10" arrival="58" arrivalLane="27053786#5_0" arrivalPos="1.88" arrivalSpeed="13.56" duration="48" routeLength="316.29" waitSteps="12" rerouteNo="0" devices="" vtype="DEFAULT_VEHTYPE" vaporized=""></tripinfo>
    <tripinfo id="Rand5" depart="0" departLane="27053106#2_0" departPos="0.00" departSpeed="0.00" departDelay="0" arrival="63" arrivalLane="27122600#0_0" arrivalPos="0.51" arrivalSpeed="9.23" duration="63" routeLength="518.22" waitSteps="2" rerouteNo="0" devices="" vtype="DEFAULT_VEHTYPE" vaporized=""></tripinfo>
    <tripinfo id="Rand314" depart="5" departLane="-27082628#1_0" departPos="0.00" departSpeed="0.00" departDelay="5" arrival="66" arrivalLane="27082629#7_0" arrivalPos="10.66" arrivalSpeed="21.46" duration="61" routeLength="541.41" waitSteps="14" rerouteNo="0" devices="" vtype="DEFAULT_VEHTYPE" vaporized=""></tripinfo>
    <tripinfo id="Rand60" depart="13" departLane="28629700#2_0" departPos="0.00" departSpeed="0.00" departDelay="13" arrival="66" arrivalLane="27154183#3_0" arrivalPos="11.93" arrivalSpeed="13.51" duration="53" routeLength="483.37" waitSteps="1" rerouteNo="0" devices="" vtype="DEFAULT_VEHTYPE" vaporized=""></tripinfo>
    <tripinfo id="Rand195" depart="0" departLane="-28629700#1_0" departPos="0.00" departSpeed="0.00" departDelay="0" arrival="71" arrivalLane="28629700#0_1" arrivalPos="7.39" arrivalSpeed="8.24" duration="71" routeLength="1481.68" waitSteps="0" rerouteNo="0" devices="" vtype="DEFAULT_VEHTYPE" vaporized=""></tripinfo>
    <tripinfo id="Rand602" depart="3" departLane="27082600#1_0" departPos="0.00" departSpeed="0.00" departDelay="3" arrival="75" arrivalLane="27053782#2_0" arrivalPos="1.02" arrivalSpeed="4.85" duration="72" routeLength="718.81" waitSteps="0" rerouteNo="0" devices="" vtype="DEFAULT_VEHTYPE" vaporized=""></tripinfo>
    <tripinfo id="Rand495" depart="6" departLane="27122600#1_0" departPos="0.00" departSpeed="0.00" departDelay="6" arrival="76" arrivalLane="27083337#3_0" arrivalPos="2.41" arrivalSpeed="10.55" duration="70" routeLength="598.67" waitSteps="8" rerouteNo="0" devices="" vtype="DEFAULT_VEHTYPE" vaporized=""></tripinfo>
    <tripinfo id="Rand162" depart="0" departLane="27082600#0_0" departPos="0.00" departSpeed="0.00" departDelay="0" arrival="79" arrivalLane="27053782#1_0" arrivalPos="13.66" arrivalSpeed="13.71" duration="79" routeLength="863.75" waitSteps="1" rerouteNo="0" devices="" vtype="DEFAULT_VEHTYPE" vaporized=""></tripinfo>
    <tripinfo id="Rand553" depart="3" departLane="-27082628#4_0" departPos="0.00" departSpeed="0.00" departDelay="3" arrival="80" arrivalLane="27082600#4_0" arrivalPos="0.30" arrivalSpeed="3.50" duration="77" routeLength="557.35" waitSteps="9" rerouteNo="0" devices="" vtype="DEFAULT_VEHTYPE" vaporized=""></tripinfo>
    <tripinfo id="Rand88" depart="9" departLane="27082600#0_0" departPos="0.00" departSpeed="0.00" departDelay="9" arrival="85" arrivalLane="27053106#2_0" arrivalPos="4.95" arrivalSpeed="7.31" duration="76" routeLength="735.56" waitSteps="0" rerouteNo="0" devices="" vtype="DEFAULT_VEHTYPE" vaporized=""></tripinfo>
    <tripinfo id="Rand584" depart="6" departLane="-27082628#3_0" departPos="0.00" departSpeed="0.00" departDelay="6" arrival="85" arrivalLane="27078417#3_0" arrivalPos="12.78" arrivalSpeed="13.55" duration="79" routeLength="830.09" waitSteps="1" rerouteNo="0" devices="" vtype="DEFAULT_VEHTYPE" vaporized=""></tripinfo>
    <tripinfo id="Rand326" depart="3" departLane="27154183#3_0" departPos="0.00" departSpeed="0.00" departDelay="3" arrival="86" arrivalLane="27078417#2_0" arrivalPos="3.36" arrivalSpeed="7.12" duration="83" routeLength="831.40" waitSteps="0" rerouteNo="0" devices="" vtype="DEFAULT_VEHTYPE" vaporized=""></tripinfo>
    <tripinfo id="Rand95" depart="0" departLane="27082616#1_0" departPos="0.00" departSpeed="0.00" departDelay="0" arrival="88" arrivalLane="28813885#2_0" arrivalPos="2.54" arrivalSpeed="5.78" duration="88" routeLength="594.19" waitSteps="15" rerouteNo="0" devices="" vtype="DEFAULT_VEHTYPE" vaporized=""></tripinfo>
    <tripinfo id="Rand612" depart="3" departLane="28408742#2_0" departPos="0.00" departSpeed="0.00" departDelay="3" arrival="92" arrivalLane="28408742#4_0" arrivalPos="13.51" arrivalSpeed="13.75" duration="89" routeLength="372.33" waitSteps="40" rerouteNo="0" devices="" vtype="DEFAULT_VEHTYPE" vaporized=""></tripinfo>
    <tripinfo id="Rand157" depart="0" departLane="27083337#4_0" departPos="0.00" departSpeed="0.00" departDelay="0" arrival="92" arrivalLane="27639462#0_0" arrivalPos="9.28" arrivalSpeed="13.51" duration="92" routeLength="874.81" waitSteps="24" rerouteNo="0" devices="" vtype="DEFAULT_VEHTYPE" vaporized=""></tripinfo>
    <tripinfo id="Rand563" depart="6" departLane="27082616#2_0" departPos="0.00" departSpeed="0.00" departDelay="6" arrival="94" arrivalLane="27082600#0_0" arrivalPos="3.26" arrivalSpeed="10.05" duration="88" routeLength="996.37" waitSteps="0" rerouteNo="0" devices="" vtype="DEFAULT_VEHTYPE" vaporized=""></tripinfo>
    <tripinfo id="Rand621" depart="0" departLane="27053106#1_0" departPos="0.00" departSpeed="0.00" departDelay="0" arrival="96" arrivalLane="27082617#2_0" arrivalPos="11.28" arrivalSpeed="13.79" duration="96" routeLength="1220.71" waitSteps="0" rerouteNo="0" devices="" vtype="DEFAULT_VEHTYPE" vaporized=""></tripinfo>
    <tripinfo id="Rand228" depart="3" departLane="27053786#3_0" departPos="0.00" departSpeed="0.00" departDelay="3" arrival="97" arrivalLane="27052067#1_0" arrivalPos="9.16" arrivalSpeed="13.47" duration="94" routeLength="920.72" waitSteps="11" rerouteNo="0" devices="" vtype="DEFAULT_VEHTYPE" vaporized=""></tripinfo>
    <tripinfo id="Rand441" depart="6" departLane="27082617#2_0" departPos="0.00" departSpeed="0.00" departDelay="6" arrival="98" arrivalLane="27082600#4_0" arrivalPos="5.96" arrivalSpeed="6.93" duration="92" routeLength="724.32" waitSteps="10" rerouteNo="0" devices="" vtype="DEFAULT_VEHTYPE" vaporized=""></tripinfo>
    <tripinfo id="Rand412" depart="3" departLane="27082616#3_0" departPos="0.00" departSpeed="0.00" departDelay="3" arrival="98" arrivalLane="27055797#1_0" arrivalPos="2.86" arrivalSpeed="6.53" duration="95" routeLength="981.15" waitSteps="0" rerouteNo="0" devices="" vtype="DEFAULT_VEHTYPE" vaporized=""></tripinfo>
    <tripinfo id="Rand504" depart="12" departLane="27082616#5_0" departPos="0.00" departSpeed="0.00" departDelay="12" arrival="99" arrivalLane="27154183#3_0" arrivalPos="8.87" arrivalSpeed="13.34" duration="87" routeLength="1017.75" waitSteps="0" rerouteNo="0" devices="" vtype="DEFAULT_VEHTYPE" vaporized=""></tripinfo>
    <tripinfo id="Rand117" depart="0" departLane="27154183#3_0" departPos="0.00" departSpeed="0.00" departDelay="0" arrival="101" arrivalLane="27082616#3_0" arrivalPos="5.96" arrivalSpeed="7.82" duration="101" routeLength="1019.32" waitSteps="0" rerouteNo="0" devices="" vtype="DEFAULT_VEHTYPE" vaporized=""></tripinfo>
    <tripinfo id="Rand359" depart="8" departLane="-27082628#1_0" departPos="0.00" departSpeed="0.00" departDelay="8" arrival="104" arrivalLane="27078417#4_0" arrivalPos="5.35" arrivalSpeed="13.29" duration="96" routeLength="1153.27" waitSteps="0" rerouteNo="0" devices="" vtype="DEFAULT_VEHTYPE" vaporized=""></tripinfo>
    <tripinfo id="Rand529" depart="3" departLane="27082617#1_0" departPos="0.00" departSpeed="0.00" departDelay="3" arrival="105" arrivalLane="27053171#3_0" arrivalPos="3.43" arrivalSpeed="6.67" duration="102" routeLength="1203.23" waitSteps="0" rerouteNo="0" devices="" vtype="DEFAULT_VEHTYPE" vaporized=""></tripinfo>
    <tripinfo id="Rand102" depart="0" departLane="27077992#2_0" departPos="0.00" departSpeed="0.00" departDelay="0" arrival="108" arrivalLane="27083324#1_0" arrivalPos="3.22" arrivalSpeed="9.66" duration="108" routeLength="1058.26" waitSteps="7" rerouteNo="0" devices="" vtype="DEFAULT_VEHTYPE" vaporized=""></tripinfo>
    <tripinfo id="Rand409" depart="6" departLane="27082616#0_0" departPos="0.00" departSpeed="0.00" departDelay="6" arrival="109" arrivalLane="-27082628#3_1" arrivalPos="1.79" arrivalSpeed="6.20" duration="103" routeLength="793.89" waitSteps="28" rerouteNo="0" devices="" vtype="DEFAULT_VEHTYPE" vaporized=""></tripinfo>
    <tripinfo id="Rand308" depart="0" departLane="27078417#3_0" departPos="0.00" departSpeed="0.00" departDelay="0" arrival="111" arrivalLane="28813885#3_0" arrivalPos="0.34" arrivalSpeed="21.42" duration="111" routeLength="1090.58" waitSteps="4" rerouteNo="0" devices="" vtype="DEFAULT_VEHTYPE" vaporized=""></tripinfo>
    <tripinfo id="Rand542" depart="12" departLane="27077992#4_0" departPos="0.00" departSpeed="0.00" departDelay="12" arrival="111" arrivalLane="-27082605_0" arrivalPos="12.88" arrivalSpeed="13.88" duration="99" routeLength="452.05" waitSteps="37" rerouteNo="0" devices="" vtype="DEFAULT_VEHTYPE" vaporized=""></tripinfo>
    <tripinfo id="Rand45" depart="6" departLane="27083337#1_0" departPos="0.00" departSpeed="0.00" departDelay="6" arrival="112" arrivalLane="27639462#2_0" arrivalPos="2.56" arrivalSpeed="3.53" duration="106" routeLength="874.81" waitSteps="23" rerouteNo="0" devices="" vtype="DEFAULT_VEHTYPE" vaporized=""></tripinfo>
    <tripinfo id="Rand154" depart="3" departLane="27082629#4_0" departPos="0.00" departSpeed="0.00" departDelay="3" arrival="115" arrivalLane="27082629#6_0" arrivalPos="11.98" arrivalSpeed="13.96" duration="112" routeLength="114.94" waitSteps="89" rerouteNo="0" devices="" vtype="DEFAULT_VEHTYPE" vaporized=""></tripinfo>
    <tripinfo id="Rand565" depart="9" departLane="27052069#1_0" departPos="0.00" departSpeed="0.00" departDelay="9" arrival="117" arrivalLane="27082616#5_0" arrivalPos="5.41" arrivalSpeed="7.45" duration="108" routeLength="831.71" waitSteps="14" rerouteNo="0" devices="" vtype="DEFAULT_VEHTYPE" vaporized=""></tripinfo>
    <tripinfo id="Rand312" depart="3" departLane="27056034#2_0" departPos="0.00" departSpeed="0.00" departDelay="3" arrival="118" arrivalLane="27056035#1_0" arrivalPos="8.29" arrivalSpeed="9.15" duration="115" routeLength="322.91" waitSteps="70" rerouteNo="0" devices="" vtype="DEFAULT_VEHTYPE" vaporized=""></tripinfo>
    <tripinfo id="Rand389" depart="3" departLane="27053171#1_0" departPos="0.00" departSpeed="0.00" departDelay="3" arrival="120" arrivalLane="27053106#3_0" arrivalPos="4.85" arrivalSpeed="7.50" duration="117" routeLength="516.27" waitSteps="27" rerouteNo="0" devices="" vtype="DEFAULT_VEHTYPE" vaporized=""></tripinfo>
    <tripinfo id="Rand430" depart="6" departLane="27154183#3_0" departPos="0.00" departSpeed="0.00" departDelay="6" arrival="122" arrivalLane="27082617#3_0" arrivalPos="6.62" arrivalSpeed="13.63" duration="116" routeLength="1201.68" waitSteps="0" rerouteNo="0" devices="" vtype="DEFAULT_VEHTYPE" vaporized=""></tripinfo>
    <tripinfo id="Rand297" depart="1" departLane="27082628#5_0" departPos="0.00" departSpeed="0.00" departDelay="1" arrival="122" arrivalLane="27082617#5_0" arrivalPos="6.95" arrivalSpeed="8.80" duration="121" routeLength="2625.73" waitSteps="0" rerouteNo="0" devices="" vtype="DEFAULT_VEHTYPE" vaporized=""></tripinfo>
    <tripinfo id="Rand567" depart="12" departLane="27053170#0_0" departPos="0.00" departSpeed="0.00" departDelay="12" arrival="123" arrivalLane="27077992#1_0" arrivalPos="8.34" arrivalSpeed="13.44" duration="111" routeLength="1256.09" waitSteps="1" rerouteNo="0" devices="" vtype="DEFAULT_VEHTYPE" vaporized=""></tripinfo>
    <tripinfo id="Rand408" depart="9" departLane="27494703#1_0" departPos="0.00" departSpeed="0.00" departDelay="9" arrival="123" arrivalLane="-27494703#1_0" arrivalPos="6.49" arrivalSpeed="7.41" duration="114" routeLength="172.31" waitSteps="82" rerouteNo="0" devices="" vtype="DEFAULT_VEHTYPE" vaporized=""></tripinfo>
    <tripinfo id="Rand119" depart="0" departLane="27082616#0_0" departPos="0.00" departSpeed="0.00" departDelay="0" arrival="123" arrivalLane="27082616#2_0" arrivalPos="5.01" arrivalSpeed="7.60" duration="123" routeLength="1019.99" waitSteps="32" rerouteNo="0" devices="" vtype="DEFAULT_VEHTYPE" vaporized=""></tripinfo>
    <tripinfo id="Rand122" depart="0" departLane="27082629#4_0" departPos="0.00" departSpeed="0.00" departDelay="0" arrival="124" arrivalLane="27486761_0" arrivalPos="8.56" arrivalSpeed="12.92" duration="124" routeLength="208.05" waitSteps="93" rerouteNo="0" devices="" vtype="DEFAULT_VEHTYPE" vaporized=""></tripinfo>
    <tripinfo id="Rand534" depart="12" departLane="28813885#1_0" departPos="0.00" departSpeed="0.00" departDelay="12" arrival="125" arrivalLane="27082604#5_0" arrivalPos="7.81" arrivalSpeed="8.69" duration="113" routeLength="575.30" waitSteps="40" rerouteNo="0" devices="" vtype="DEFAULT_VEHTYPE" vaporized=""></tripinfo>
    <tripinfo id="Rand363" depart="0" departLane="27082629#2_0" departPos="0.00" departSpeed="0.00" departDelay="0" arrival="125" arrivalLane="27082629#4_0" arrivalPos="0.50" arrivalSpeed="4.51" duration="125" routeLength="365.23" waitSteps="83" rerouteNo="0" devices="" vtype="DEFAULT_VEHTYPE" vaporized=""></tripinfo>
    <tripinfo id="Rand571" depart="30" departLane="27082616#5_0" departPos="0.00" departSpeed="0.00" departDelay="30" arrival="126" arrivalLane="27082600#3_0" arrivalPos="5.84" arrivalSpeed="8.50" duration="96" routeLength="1092.15" waitSteps="0" rerouteNo="0" devices="" vtype="DEFAULT_VEHTYPE" vaporized=""></tripinfo>
    <tripinfo id="Rand188" depart="3" departLane="27082629#1_0" departPos="0.00" departSpeed="0.00" departDelay="3" arrival="126" arrivalLane="27082624#4_0" arrivalPos="5.42" arrivalSpeed="7.40" duration="123" routeLength="360.88" waitSteps="77" rerouteNo="0" devices="" vtype="DEFAULT_VEHTYPE" vaporized=""></tripinfo>
    <tripinfo id="Rand256" depart="6" departLane="28813885#3_0" departPos="0.00" departSpeed="0.00" departDelay="6" arrival="130" arrivalLane="27078417#1_0" arrivalPos="0.08" arrivalSpeed="4.19" duration="124" routeLength="635.95" waitSteps="51" rerouteNo="0" devices="" vtype="DEFAULT_VEHTYPE" vaporized=""></tripinfo>
    <tripinfo id="Rand434" depart="9" departLane="27082604#1_0" departPos="0.00" departSpeed="0.00" departDelay="9" arrival="131" arrivalLane="27082600#4_0" arrivalPos="1.71" arrivalSpeed="13.38" duration="122" routeLength="681.16" waitSteps="23" rerouteNo="0" devices="" vtype="DEFAULT_VEHTYPE" vaporized=""></tripinfo>
    <tripinfo id="Rand440" depart="9" departLane="27053171#0_0" departPos="0.00" departSpeed="0.00" departDelay="9" arrival="132" arrivalLane="27053106#3_0" arrivalPos="3.22" arrivalSpeed="6.60" duration="123" routeLength="669.20" waitSteps="18" rerouteNo="0" devices="" vtype="DEFAULT_VEHTYPE" vaporized=""></tripinfo>
    <tripinfo id="Rand622" depart="12" departLane="27082604#1_0" departPos="0.00" departSpeed="0.00" departDelay="12" arrival="135" arrivalLane="27077992#3_0" arrivalPos="12.85" arrivalSpeed="13.64" duration="123" routeLength="692.30" waitSteps="21" rerouteNo="0" devices="" vtype="DEFAULT_VEHTYPE" vaporized=""></tripinfo>
    <tripinfo id="Rand139" depart="0" departLane="27053106#3_0" departPos="0.00" departSpeed="0.00" departDelay="0" arrival="136" arrivalLane="27639462#1_0" arrivalPos="0.44" arrivalSpeed="4.45" duration="136" routeLength="1224.56" waitSteps="28" rerouteNo="0" devices="" vtype="DEFAULT_VEHTYPE" vaporized=""></tripinfo>
    <tripinfo id="Rand138" depart="3" departLane="27053170#2_0" departPos="0.00" departSpeed="0.00" departDelay="3" arrival="138" arrivalLane="27077992#4_0" arrivalPos="3.88" arrivalSpeed="6.37" duration="135" routeLength="1476.40" waitSteps="0" rerouteNo="0" devices="" vtype="DEFAULT_VEHTYPE" vaporized=""></tripinfo>
    <tripinfo id="Rand347" depart="0" departLane="27082604#0_0" departPos="0.00" departSpeed="0.00" departDelay="0" arrival="139" arrivalLane="27053786#2_0" arrivalPos="8.02" arrivalSpeed="13.53" duration="139" routeLength="744.22" waitSteps="71" rerouteNo="0" devices="" vtype="DEFAULT_VEHTYPE" vaporized=""></tripinfo>
    <tripinfo id="Rand70" depart="36" departLane="27082616#5_0" departPos="0.00" departSpeed="0.00" departDelay="36" arrival="139" arrivalLane="27639462#1_0" arrivalPos="3.49" arrivalSpeed="6.78" duration="103" routeLength="975.69" waitSteps="9" rerouteNo="0" devices="" vtype="DEFAULT_VEHTYPE" vaporized=""></tripinfo>
    <tripinfo id="Rand606" depart="27" departLane="27077992#4_0" departPos="0.00" departSpeed="0.00" departDelay="27" arrival="148" arrivalLane="27082628#2_0" arrivalPos="6.84" arrivalSpeed="8.42" duration="121" routeLength="379.82" waitSteps="52" rerouteNo="0" devices="" vtype="DEFAULT_VEHTYPE" vaporized=""></tripinfo>
    <tripinfo id="Rand592" depart="34" departLane="27052069#0_0" departPos="0.00" departSpeed="0.00" departDelay="34" arrival="151" arrivalLane="27082600#2_0" arrivalPos="12.05" arrivalSpeed="13.21" duration="117" routeLength="1004.93" waitSteps="0" rerouteNo="0" devices="" vtype="DEFAULT_VEHTYPE" vaporized=""></tripinfo>
    <tripinfo id="Rand91" depart="12" departLane="-28629700#1_0" departPos="0.00" departSpeed="0.00" departDelay="12" arrival="156" arrivalLane="27055797#1_0" arrivalPos="3.80" arrivalSpeed="13.15" duration="144" routeLength="881.87" waitSteps="67" rerouteNo="0" devices="" vtype="DEFAULT_VEHTYPE" vaporized=""></tripinfo>
    <tripinfo id="Rand367" depart="3" departLane="27056035#1_0" departPos="0.00" departSpeed="0.00" departDelay="3" arrival="157" arrivalLane="27056036#1_0" arrivalPos="1.69" arrivalSpeed="7.42" duration="154" routeLength="494.01" waitSteps="87" rerouteNo="0" devices="" vtype="DEFAULT_VEHTYPE" vaporized=""></tripinfo>
    <tripinfo id="Rand333" depart="7" departLane="-28629700#1_0" departPos="0.00" departSpeed="0.00" departDelay="7" arrival="157" arrivalLane="27154183#3_0" arrivalPos="4.50" arrivalSpeed="7.25" duration="150" routeLength="850.24" waitSteps="72" rerouteNo="0" devices="" vtype="DEFAULT_VEHTYPE" vaporized=""></tripinfo>
    <tripinfo id="Rand210" depart="0" departLane="27082624#5_0" departPos="0.00" departSpeed="0.00" departDelay="0" arrival="158" arrivalLane="-27494703#0_0" arrivalPos="6.54" arrivalSpeed="8.02" duration="158" routeLength="633.90" waitSteps="81" rerouteNo="0" devices="" vtype="DEFAULT_VEHTYPE" vaporized=""></tripinfo>
    <tripinfo id="Rand525" depart="6" departLane="27053790#4_0" departPos="0.00" departSpeed="0.00" departDelay="6" arrival="159" arrivalLane="27082629#6_0" arrivalPos="9.69" arrivalSpeed="15.02" duration="153" routeLength="698.87" waitSteps="71" rerouteNo="0" devices="" vtype="DEFAULT_VEHTYPE" vaporized=""></tripinfo>
    <tripinfo id="Rand309" depart="3" departLane="27154183#2_0" departPos="0.00" departSpeed="0.00" departDelay="3" arrival="163" arrivalLane="27082600#3_0" arrivalPos="2.92" arrivalSpeed="7.07" duration="160" routeLength="967.79" waitSteps="34" rerouteNo="0" devices="" vtype="DEFAULT_VEHTYPE" vaporized=""></tripinfo>
    <tripinfo id="Rand615" depart="24" departLane="27053106#3_0" departPos="0.00" departSpeed="0.00" departDelay="24" arrival="164" arrivalLane="-28629700#2_1" arrivalPos="5.96" arrivalSpeed="7.54" duration="140" routeLength="540.25" waitSteps="78" rerouteNo="0" devices="" vtype="DEFAULT_VEHTYPE" vaporized=""></tripinfo>
    <tripinfo id="Rand429" depart="3" departLane="27082604#2_0" departPos="0.00" departSpeed="0.00" departDelay="3" arrival="169" arrivalLane="28813885#2_0" arrivalPos="6.69" arrivalSpeed="21.55" duration="166" routeLength="547.88" waitSteps="93" rerouteNo="0" devices="" vtype="DEFAULT_VEHTYPE" vaporized=""></tripinfo>
    <tripinfo id="Rand137" depart="0" departLane="28813885#5_0" departPos="0.00" departSpeed="0.00" departDelay="0" arrival="170" arrivalLane="27082617#2_0" arrivalPos="9.25" arrivalSpeed="13.53" duration="170" routeLength="1692.38" waitSteps="3" rerouteNo="0" devices="" vtype="DEFAULT_VEHTYPE" vaporized=""></tripinfo>
    <tripinfo id="Rand411" depart="3" departLane="27082604#3_0" departPos="0.00" departSpeed="0.00" departDelay="3" arrival="172" arrivalLane="28813885#3_0" arrivalPos="9.44" arrivalSpeed="17.86" duration="169" routeLength="546.90" waitSteps="110" rerouteNo="0" devices="" vtype="DEFAULT_VEHTYPE" vaporized=""></tripinfo>
    <tripinfo id="Rand470" depart="3" departLane="27083337#3_0" departPos="0.00" departSpeed="0.00" departDelay="3" arrival="176" arrivalLane="-28629700#3_1" arrivalPos="4.11" arrivalSpeed="6.83" duration="173" routeLength="586.55" waitSteps="108" rerouteNo="0" devices="" vtype="DEFAULT_VEHTYPE" vaporized=""></tripinfo>
    <tripinfo id="Rand331" depart="3" departLane="27052067#4_0" departPos="0.00" departSpeed="0.00" departDelay="3" arrival="177" arrivalLane="27053782#1_0" arrivalPos="7.65" arrivalSpeed="13.51" duration="174" routeLength="1096.81" waitSteps="76" rerouteNo="0" devices="" vtype="DEFAULT_VEHTYPE" vaporized=""></tripinfo>
    <tripinfo id="Rand230" depart="1" departLane="-28629700#3_0" departPos="0.00" departSpeed="0.00" departDelay="1" arrival="178" arrivalLane="28629700#1_1" arrivalPos="1.18" arrivalSpeed="3.76" duration="177" routeLength="513.14" waitSteps="127" rerouteNo="0" devices="" vtype="DEFAULT_VEHTYPE" vaporized=""></tripinfo>
    <tripinfo id="Rand421" depart="3" departLane="27639510_0" departPos="0.00" departSpeed="0.00" departDelay="3" arrival="180" arrivalLane="-28629700#0_1" arrivalPos="7.51" arrivalSpeed="10.35" duration="177" routeLength="501.13" waitSteps="110" rerouteNo="0" devices="" vtype="DEFAULT_VEHTYPE" vaporized=""></tripinfo>
    <tripinfo id="Rand360" depart="0" departLane="27056034#3_0" departPos="0.00" departSpeed="0.00" departDelay="0" arrival="181" arrivalLane="-28629700#2_1" arrivalPos="3.85" arrivalSpeed="6.15" duration="181" routeLength="1184.09" waitSteps="55" rerouteNo="0" devices="" vtype="DEFAULT_VEHTYPE" vaporized=""></tripinfo>
    <tripinfo id="Rand277" depart="3" departLane="27077992#4_0" departPos="0.00" departSpeed="0.00" departDelay="3" arrival="183" arrivalLane="28813885#3_0" arrivalPos="0.52" arrivalSpeed="18.39" duration="180" routeLength="682.41" waitSteps="86" rerouteNo="0" devices="" vtype="DEFAULT_VEHTYPE" vaporized=""></tripinfo>
    <tripinfo id="Rand564" depart="3" departLane="27082629#2_0" departPos="0.00" departSpeed="0.00" departDelay="3" arrival="183" arrivalLane="27077992#1_0" arrivalPos="9.50" arrivalSpeed="13.32" duration="180" routeLength="1251.59" waitSteps="47" rerouteNo="0" devices="" vtype="DEFAULT_VEHTYPE" vaporized=""></tripinfo>
    <tripinfo id="Rand424" depart="39" departLane="27154183#2_0" departPos="0.00" departSpeed="0.00" departDelay="39" arrival="183" arrivalLane="27082600#2_0" arrivalPos="11.60" arrivalSpeed="13.56" duration="144" routeLength="804.18" waitSteps="14" rerouteNo="0" devices="" vtype="DEFAULT_VEHTYPE" vaporized=""></tripinfo>
    <tripinfo id="Rand32" depart="4" departLane="-28629700#1_0" departPos="0.00" departSpeed="0.00" departDelay="4" arrival="183" arrivalLane="27052071#1_0" arrivalPos="4.65" arrivalSpeed="6.49" duration="179" routeLength="670.10" waitSteps="98" rerouteNo="0" devices="" vtype="DEFAULT_VEHTYPE" vaporized=""></tripinfo>
    <tripinfo id="Rand237" depart="0" departLane="28813885#0_0" departPos="0.00" departSpeed="0.00" departDelay="0" arrival="184" arrivalLane="27082624#1_0" arrivalPos="11.18" arrivalSpeed="13.29" duration="184" routeLength="1422.72" waitSteps="78" rerouteNo="0" devices="" vtype="DEFAULT_VEHTYPE" vaporized=""></tripinfo>
    <tripinfo id="Rand595" depart="12" departLane="27056027#2_0" departPos="0.00" departSpeed="0.00" departDelay="12" arrival="185" arrivalLane="-28629700#0_1" arrivalPos="0.99" arrivalSpeed="24.87" duration="173" routeLength="1077.62" waitSteps="53" rerouteNo="0" devices="" vtype="DEFAULT_VEHTYPE" vaporized=""></tripinfo>
    <tripinfo id="Rand310" depart="3" departLane="27486761_0" departPos="0.00" departSpeed="0.00" departDelay="3" arrival="191" arrivalLane="27053790#1_0" arrivalPos="2.43" arrivalSpeed="5.18" duration="188" routeLength="745.30" waitSteps="93" rerouteNo="0" devices="" vtype="DEFAULT_VEHTYPE" vaporized=""></tripinfo>
    <tripinfo id="Rand0" depart="0" departLane="27082624#0_0" departPos="0.00" departSpeed="0.00" departDelay="0" arrival="193" arrivalLane="27053790#1_0" arrivalPos="1.16" arrivalSpeed="6.60" duration="193" routeLength="1368.25" waitSteps="48" rerouteNo="0" devices="" vtype="DEFAULT_VEHTYPE" vaporized=""></tripinfo>