<?xml version="1.0"?>

<!-- generated on Wed Jun  9 13:04:09 2010 by SUMO sumo Version 0.11.1
<configuration>

    <input>
        <net-file value="condor/tl2/malaga-alameda/alameda.net.xml"/>
        <route-files value="condor/tl2/malaga-alameda/alameda.rou.xml"/>
        <additional-files value="condor/tl2/malaga-alameda/tl-logic.add.xml"/>
    </input>

    <output>
        <netstate-dump value="condor/tl2/malaga-alameda/alameda.sumo.tr"/>
        <emissions-output value="condor/tl2/malaga-alameda/output-emissions.xml"/>
        <tripinfo-output value="condor/tl2/malaga-alameda/output-tripinfos.xml"/>
        <vehroute-output value="condor/tl2/malaga-alameda/output-vehroutes.xml"/>
    </output>

    <time>
        <begin value="0"/>
        <end value="500"/>
    </time>

    <processing>
        <route-steps value="-1"/>
        <time-to-teleport value="-1"/>
    </processing>

    <report>
        <print-options value="false"/>
        <suppress-warnings value="true"/>
    </report>

    <random_number>
        <srand value="23423"/>
    </random_number>

    <gui_only>
        <gui-settings-file value=""/>
    </gui_only>

</configuration>
-->

<emissions>
    <emission-state time="0" loaded="200" emitted="124" running="124" waiting="76" ended="0" meanWaitingTime="0.00" meanTravelTime="-1.00" duration="0" />
    <emission-state time="1" loaded="200" emitted="132" running="132" waiting="68" ended="0" meanWaitingTime="0.06" meanTravelTime="-1.00" duration="8" />
    <emission-state time="2" loaded="200" emitted="133" running="133" waiting="67" ended="0" meanWaitingTime="0.08" meanTravelTime="-1.00" duration="3" />
    <emission-state time="3" loaded="200" emitted="170" running="170" waiting="30" ended="0" meanWaitingTime="0.71" meanTravelTime="-1.00" duration="3" />
    <emission-state time="4" loaded="200" emitted="173" running="173" waiting="27" ended="0" meanWaitingTime="0.77" meanTravelTime="-1.00" duration="4" />
    <emission-state time="5" loaded="200" emitted="174" running="174" waiting="26" ended="0" meanWaitingTime="0.79" meanTravelTime="-1.00" duration="4" />
    <emission-state time="6" loaded="200" emitted="181" running="181" waiting="19" ended="0" meanWaitingTime="0.99" meanTravelTime="-1.00" duration="3" />
    <emission-state time="7" loaded="200" emitted="183" running="183" waiting="17" ended="0" meanWaitingTime="1.06" meanTravelTime="-1.00" duration="4" />
    <emission-state time="8" loaded="200" emitted="184" running="183" waiting="16" ended="1" meanWaitingTime="1.10" meanTravelTime="8.00" duration="4" />
    <emission-state time="9" loaded="200" emitted="185" running="183" waiting="15" ended="2" meanWaitingTime="1.14" meanTravelTime="8.50" duration="3" />
    <emission-state time="10" loaded="200" emitted="186" running="183" waiting="14" ended="3" meanWaitingTime="1.19" meanTravelTime="9.00" duration="4" />
    <emission-state time="11" loaded="200" emitted="188" running="185" waiting="12" ended="3" meanWaitingTime="1.29" meanTravelTime="9.00" duration="4" />
    <emission-state time="12" loaded="200" emitted="188" running="185" waiting="12" ended="3" meanWaitingTime="1.29" meanTravelTime="9.00" duration="3" />
    <emission-state time="13" loaded="200" emitted="188" running="185" waiting="12" ended="3" meanWaitingTime="1.29" meanTravelTime="9.00" duration="4" />
    <emission-state time="14" loaded="200" emitted="189" running="186" waiting="11" ended="3" meanWaitingTime="1.36" meanTravelTime="9.00" duration="4" />
    <emission-state time="15" loaded="200" emitted="190" running="187" waiting="10" ended="3" meanWaitingTime="1.43" meanTravelTime="9.00" duration="3" />
    <emission-state time="16" loaded="200" emitted="190" running="187" waiting="10" ended="3" meanWaitingTime="1.43" meanTravelTime="9.00" duration="4" />
    <emission-state time="17" loaded="200" emitted="190" running="186" waiting="10" ended="4" meanWaitingTime="1.43" meanTravelTime="11.00" duration="4" />
    <emission-state time="18" loaded="200" emitted="190" running="185" waiting="10" ended="5" meanWaitingTime="1.43" meanTravelTime="11.80" duration="3" />
    <emission-state time="19" loaded="200" emitted="190" running="185" waiting="10" ended="5" meanWaitingTime="1.43" meanTravelTime="11.80" duration="4" />
    <emission-state time="20" loaded="200" emitted="190" running="185" waiting="10" ended="5" meanWaitingTime="1.43" meanTravelTime="11.80" duration="3" />
    <emission-state time="21" loaded="200" emitted="190" running="185" waiting="10" ended="5" meanWaitingTime="1.43" meanTravelTime="11.80" duration="4" />
    <emission-state time="22" loaded="200" emitted="190" running="185" waiting="10" ended="5" meanWaitingTime="1.43" meanTravelTime="11.80" duration="3" />
    <emission-state time="23" loaded="200" emitted="190" running="184" waiting="10" ended="6" meanWaitingTime="1.43" meanTravelTime="13.67" duration="3" />
    <emission-state time="24" loaded="200" emitted="190" running="182" waiting="10" ended="8" meanWaitingTime="1.43" meanTravelTime="15.50" duration="4" />
    <emission-state time="25" loaded="200" emitted="190" running="182" waiting="10" ended="8" meanWaitingTime="1.43" meanTravelTime="15.50" duration="2" />
    <emission-state time="26" loaded="200" emitted="190" running="182" waiting="10" ended="8" meanWaitingTime="1.43" meanTravelTime="15.50" duration="3" />
    <emission-state time="27" loaded="200" emitted="190" running="181" waiting="10" ended="9" meanWaitingTime="1.43" meanTravelTime="16.22" duration="7" />
    <emission-state time="28" loaded="200" emitted="190" running="181" waiting="10" ended="9" meanWaitingTime="1.43" meanTravelTime="16.22" duration="2" />
    <emission-state time="29" loaded="200" emitted="190" running="181" waiting="10" ended="9" meanWaitingTime="1.43" meanTravelTime="16.22" duration="3" />
    <emission-state time="30" loaded="200" emitted="190" running="181" waiting="10" ended="9" meanWaitingTime="1.43" meanTravelTime="16.22" duration="2" />
    <emission-state time="31" loaded="200" emitted="190" running="181" waiting="10" ended="9" meanWaitingTime="1.43" meanTravelTime="16.22" duration="2" />
    <emission-state time="32" loaded="200" emitted="190" running="181" waiting="10" ended="9" meanWaitingTime="1.43" meanTravelTime="16.22" duration="3" />
    <emission-state time="33" loaded="200" emitted="190" running="181" waiting="10" ended="9" meanWaitingTime="1.43" meanTravelTime="16.22" duration="2" />
    <emission-state time="34" loaded="200" emitted="190" running="181" waiting="10" ended="9" meanWaitingTime="1.43" meanTravelTime="16.22" duration="2" />
    <emission-state time="35" loaded="200" emitted="190" running="181" waiting="10" ended="9" meanWaitingTime="1.43" meanTravelTime="16.22" duration="2" />
    <emission-state time="36" loaded="200" emitted="190" running="180" waiting="10" ended="10" meanWaitingTime="1.43" meanTravelTime="18.20" duration="2" />
    <emission-state time="37" loaded="200" emitted="190" running="180" waiting="10" ended="10" meanWaitingTime="1.43" meanTravelTime="18.20" duration="3" />
    <emission-state time="38" loaded="200" emitted="190" running="180" waiting="10" ended="10" meanWaitingTime="1.43" meanTravelTime="18.20" duration="2" />
    <emission-state time="39" loaded="200" emitted="190" running="180" waiting="10" ended="10" meanWaitingTime="1.43" meanTravelTime="18.20" duration="2" />
    <emission-state time="40" loaded="200" emitted="190" running="180" waiting="10" ended="10" meanWaitingTime="1.43" meanTravelTime="18.20" duration="2" />
    <emission-state time="41" loaded="200" emitted="190" running="180" waiting="10" ended="10" meanWaitingTime="1.43" meanTravelTime="18.20" duration="3" />
    <emission-state time="42" loaded="200" emitted="190" running="179" waiting="10" ended="11" meanWaitingTime="1.43" meanTravelTime="19.73" duration="2" />
    <emission-state time="43" loaded="200" emitted="190" running="178" waiting="10" ended="12" meanWaitingTime="1.43" meanTravelTime="21.67" duration="2" />
    <emission-state time="44" loaded="200" emitted="190" running="178" waiting="10" ended="12" meanWaitingTime="1.43" meanTravelTime="21.67" duration="2" />
    <emission-state time="45" loaded="200" emitted="190" running="177" waiting="10" ended="13" meanWaitingTime="1.43" meanTravelTime="23.46" duration="2" />
    <emission-state time="46" loaded="200" emitted="190" running="177" waiting="10" ended="13" meanWaitingTime="1.43" meanTravelTime="23.46" duration="2" />
    <emission-state time="47" loaded="200" emitted="190" running="177" waiting="10" ended="13" meanWaitingTime="1.43" meanTravelTime="23.46" duration="2" />
    <emission-state time="48" loaded="200" emitted="190" running="177" waiting="10" ended="13" meanWaitingTime="1.43" meanTravelTime="23.46" duration="2" />
    <emission-state time="49" loaded="200" emitted="190" running="177" waiting="10" ended="13" meanWaitingTime="1.43" meanTravelTime="23.46" duration="3" />
    <emission-state time="50" loaded="200" emitted="190" running="177" waiting="10" ended="13" meanWaitingTime="1.43" meanTravelTime="23.46" duration="2" />
    <emission-state time="51" loaded="200" emitted="190" running="177" waiting="10" ended="13" meanWaitingTime="1.43" meanTravelTime="23.46" duration="2" />
    <emission-state time="52" loaded="200" emitted="190" running="177" waiting="10" ended="13" meanWaitingTime="1.43" meanTravelTime="23.46" duration="2" />
    <emission-state time="53" loaded="200" emitted="190" running="176" waiting="10" ended="14" meanWaitingTime="1.43" meanTravelTime="25.14" duration="2" />
    <emission-state time="54" loaded="200" emitted="190" running="176" waiting="10" ended="14" meanWaitingTime="1.43" meanTravelTime="25.14" duration="2" />
    <emission-state time="55" loaded="200" emitted="190" running="176" waiting="10" ended="14" meanWaitingTime="1.43" meanTravelTime="25.14" duration="2" />
    <emission-state time="56" loaded="200" emitted="190" running="175" waiting="10" ended="15" meanWaitingTime="1.43" meanTravelTime="27.20" duration="2" />
    <emission-state time="57" loaded="200" emitted="190" running="174" waiting="10" ended="16" meanWaitingTime="1.43" meanTravelTime="28.38" duration="2" />
    <emission-state time="58" loaded="200" emitted="190" running="174" waiting="10" ended="16" meanWaitingTime="1.43" meanTravelTime="28.38" duration="2" />
    <emission-state time="59" loaded="200" emitted="190" running="174" waiting="10" ended="16" meanWaitingTime="1.43" meanTravelTime="28.38" duration="2" />
    <emission-state time="60" loaded="200" emitted="190" running="174" waiting="10" ended="16" meanWaitingTime="1.43" meanTravelTime="28.38" duration="2" />
    <emission-state time="61" loaded="200" emitted="190" running="174" waiting="10" ended="16" meanWaitingTime="1.43" meanTravelTime="28.38" duration="2" />
    <emission-state time="62" loaded="200" emitted="190" running="174" waiting="10" ended="16" meanWaitingTime="1.43" meanTravelTime="28.38" duration="2" />
    <emission-state time="63" loaded="200" emitted="190" running="174" waiting="10" ended="16" meanWaitingTime="1.43" meanTravelTime="28.38" duration="2" />
    <emission-state time="64" loaded="200" emitted="190" running="174" waiting="10" ended="16" meanWaitingTime="1.43" meanTravelTime="28.38" duration="2" />
    <emission-state time="65" loaded="200" emitted="190" running="174" waiting="10" ended="16" meanWaitingTime="1.43" meanTravelTime="28.38" duration="2" />
    <emission-state time="66" loaded="200" emitted="190" running="174" waiting="10" ended="16" meanWaitingTime="1.43" meanTravelTime="28.38" duration="2" />
    <emission-state time="67" loaded="200" emitted="190" running="174" waiting="10" ended="16" meanWaitingTime="1.43" meanTravelTime="28.38" duration="2" />
    <emission-state time="68" loaded="200" emitted="190" running="174" waiting="10" ended="16" meanWaitingTime="1.43" meanTravelTime="28.38" duration="2" />
    <emission-state time="69" loaded="200" emitted="190" running="174" waiting="10" ended="16" meanWaitingTime="1.43" meanTravelTime="28.38" duration="2" />
    <emission-state time="70" loaded="200" emitted="190" running="174" waiting="10" ended="16" meanWaitingTime="1.43" meanTravelTime="28.38" duration="2" />
    <emission-state time="71" loaded="200" emitted="190" running="174" waiting="10" ended="16" meanWaitingTime="1.43" meanTravelTime="28.38" duration="2" />
    <emission-state time="72" loaded="200" emitted="190" running="173" waiting="10" ended="17" meanWaitingTime="1.43" meanTravelTime="30.76" duration="2" />
    <emission-state time="73" loaded="200" emitted="190" running="173" waiting="10" ended="17" meanWaitingTime="1.43" meanTravelTime="30.76" duration="2" />
    <emission-state time="74" loaded="200" emitted="190" running="173" waiting="10" ended="17" meanWaitingTime="1.43" meanTravelTime="30.76" duration="2" />
    <emission-state time="75" loaded="200" emitted="190" running="173" waiting="10" ended="17" meanWaitingTime="1.43" meanTravelTime="30.76" duration="2" />
    <emission-state time="76" loaded="200" emitted="191" running="174" waiting="9" ended="17" meanWaitingTime="1.82" meanTravelTime="30.76" duration="2" />
    <emission-state time="77" loaded="200" emitted="191" running="174" waiting="9" ended="17" meanWaitingTime="1.82" meanTravelTime="30.76" duration="2" />
    <emission-state time="78" loaded="200" emitted="191" running="174" waiting="9" ended="17" meanWaitingTime="1.82" meanTravelTime="30.76" duration="2" />
    <emission-state time="79" loaded="200" emitted="191" running="174" waiting="9" ended="17" meanWaitingTime="1.82" meanTravelTime="30.76" duration="2" />
    <emission-state time="80" loaded="200" emitted="191" running="174" waiting="9" ended="17" meanWaitingTime="1.82" meanTravelTime="30.76" duration="2" />
    <emission-state time="81" loaded="200" emitted="191" running="174" waiting="9" ended="17" meanWaitingTime="1.82" meanTravelTime="30.76" duration="2" />
    <emission-state time="82" loaded="200" emitted="191" running="174" waiting="9" ended="17" meanWaitingTime="1.82" meanTravelTime="30.76" duration="2" />
    <emission-state time="83" loaded="200" emitted="191" running="174" waiting="9" ended="17" meanWaitingTime="1.82" meanTravelTime="30.76" duration="2" />
    <emission-state time="84" loaded="200" emitted="191" running="174" waiting="9" ended="17" meanWaitingTime="1.82" meanTravelTime="30.76" duration="2" />
    <emission-state time="85" loaded="200" emitted="191" running="173" waiting="9" ended="18" meanWaitingTime="1.82" meanTravelTime="33.78" duration="3" />
    <emission-state time="86" loaded="200" emitted="191" running="172" waiting="9" ended="19" meanWaitingTime="1.82" meanTravelTime="36.53" duration="2" />
    <emission-state time="87" loaded="200" emitted="191" running="172" waiting="9" ended="19" meanWaitingTime="1.82" meanTravelTime="36.53" duration="2" />
    <emission-state time="88" loaded="200" emitted="191" running="172" waiting="9" ended="19" meanWaitingTime="1.82" meanTravelTime="36.53" duration="2" />
    <emission-state time="89" loaded="200" emitted="191" running="172" waiting="9" ended="19" meanWaitingTime="1.82" meanTravelTime="36.53" duration="2" />
    <emission-state time="90" loaded="200" emitted="191" running="170" waiting="9" ended="21" meanWaitingTime="1.82" meanTravelTime="41.24" duration="2" />
    <emission-state time="91" loaded="200" emitted="192" running="171" waiting="8" ended="21" meanWaitingTime="2.29" meanTravelTime="41.24" duration="2" />
    <emission-state time="92" loaded="200" emitted="192" running="171" waiting="8" ended="21" meanWaitingTime="2.29" meanTravelTime="41.24" duration="2" />
    <emission-state time="93" loaded="200" emitted="192" running="171" waiting="8" ended="21" meanWaitingTime="2.29" meanTravelTime="41.24" duration="2" />
    <emission-state time="94" loaded="200" emitted="192" running="171" waiting="8" ended="21" meanWaitingTime="2.29" meanTravelTime="41.24" duration="2" />
    <emission-state time="95" loaded="200" emitted="192" running="170" waiting="8" ended="22" meanWaitingTime="2.29" meanTravelTime="43.64" duration="2" />
    <emission-state time="96" loaded="200" emitted="192" running="170" waiting="8" ended="22" meanWaitingTime="2.29" meanTravelTime="43.64" duration="2" />
    <emission-state time="97" loaded="200" emitted="192" running="170" waiting="8" ended="22" meanWaitingTime="2.29" meanTravelTime="43.64" duration="2" />
    <emission-state time="98" loaded="200" emitted="192" running="170" waiting="8" ended="22" meanWaitingTime="2.29" meanTravelTime="43.64" duration="1" />
    <emission-state time="99" loaded="200" emitted="192" running="170" waiting="8" ended="22" meanWaitingTime="2.29" meanTravelTime="43.64" duration="2" />
    <emission-state time="100" loaded="200" emitted="192" running="170" waiting="8" ended="22" meanWaitingTime="2.29" meanTravelTime="43.64" duration="2" />
    <emission-state time="101" loaded="200" emitted="192" running="170" waiting="8" ended="22" meanWaitingTime="2.29" meanTravelTime="43.64" duration="2" />
    <emission-state time="102" loaded="200" emitted="192" running="170" waiting="8" ended="22" meanWaitingTime="2.29" meanTravelTime="43.64" duration="2" />
    <emission-state time="103" loaded="200" emitted="192" running="170" waiting="8" ended="22" meanWaitingTime="2.29" meanTravelTime="43.64" duration="2" />
    <emission-state time="104" loaded="200" emitted="192" running="170" waiting="8" ended="22" meanWaitingTime="2.29" meanTravelTime="43.64" duration="2" />
    <emission-state time="105" loaded="200" emitted="192" running="170" waiting="8" ended="22" meanWaitingTime="2.29" meanTravelTime="43.64" duration="2" />
    <emission-state time="106" loaded="200" emitted="192" running="170" waiting="8" ended="22" meanWaitingTime="2.29" meanTravelTime="43.64" duration="2" />
    <emission-state time="107" loaded="200" emitted="192" running="170" waiting="8" ended="22" meanWaitingTime="2.29" meanTravelTime="43.64" duration="2" />
    <emission-state time="108" loaded="200" emitted="192" running="170" waiting="8" ended="22" meanWaitingTime="2.29" meanTravelTime="43.64" duration="2" />
    <emission-state time="109" loaded="200" emitted="192" running="170" waiting="8" ended="22" meanWaitingTime="2.29" meanTravelTime="43.64" duration="1" />
    <emission-state time="110" loaded="200" emitted="192" running="170" waiting="8" ended="22" meanWaitingTime="2.29" meanTravelTime="43.64" duration="1" />
    <emission-state time="111" loaded="200" emitted="192" running="170" waiting="8" ended="22" meanWaitingTime="2.29" meanTravelTime="43.64" duration="2" />
    <emission-state time="112" loaded="200" emitted="192" running="170" waiting="8" ended="22" meanWaitingTime="2.29" meanTravelTime="43.64" duration="2" />
    <emission-state time="113" loaded="200" emitted="192" running="170" waiting="8" ended="22" meanWaitingTime="2.29" meanTravelTime="43.64" duration="2" />
    <emission-state time="114" loaded="200" emitted="192" running="170" waiting="8" ended="22" meanWaitingTime="2.29" meanTravelTime="43.64" duration="2" />
    <emission-state time="115" loaded="200" emitted="192" running="170" waiting="8" ended="22" meanWaitingTime="2.29" meanTravelTime="43.64" duration="2" />
    <emission-state time="116" loaded="200" emitted="192" running="170" waiting="8" ended="22" meanWaitingTime="2.29" meanTravelTime="43.64" duration="2" />
    <emission-state time="117" loaded="200" emitted="192" running="170" waiting="8" ended="22" meanWaitingTime="2.29" meanTravelTime="43.64" duration="2" />
    <emission-state time="118" loaded="200" emitted="192" running="170" waiting="8" ended="22" meanWaitingTime="2.29" meanTravelTime="43.64" duration="2" />
    <emission-state time="119" loaded="200" emitted="192" running="170" waiting="8" ended="22" meanWaitingTime="2.29" meanTravelTime="43.64" duration="2" />
    <emission-state time="120" loaded="200" emitted="192" running="170" waiting="8" ended="22" meanWaitingTime="2.29" meanTravelTime="43.64" duration="2" />
    <emission-state time="121" loaded="200" emitted="192" running="170" waiting="8" ended="22" meanWaitingTime="2.29" meanTravelTime="43.64" duration="2" />
    <emission-state time="122" loaded="200" emitted="192" running="170" waiting="8" ended="22" meanWaitingTime="2.29" meanTravelTime="43.64" duration="2" />
    <emission-state time="123" loaded="200" emitted="192" running="170" waiting="8" ended="22" meanWaitingTime="2.29" meanTravelTime="43.64" duration="2" />
    <emission-state time="124" loaded="200" emitted="193" running="170" waiting="7" ended="23" meanWaitingTime="2.92" meanTravelTime="47.00" duration="2" />
    <emission-state time="125" loaded="200" emitted="195" running="171" waiting="5" ended="24" meanWaitingTime="4.17" meanTravelTime="50.25" duration="2" />
    <emission-state time="126" loaded="200" emitted="195" running="171" waiting="5" ended="24" meanWaitingTime="4.17" meanTravelTime="50.25" duration="2" />
    <emission-state time="127" loaded="200" emitted="195" running="171" waiting="5" ended="24" meanWaitingTime="4.17" meanTravelTime="50.25" duration="2" />
    <emission-state time="128" loaded="200" emitted="195" running="171" waiting="5" ended="24" meanWaitingTime="4.17" meanTravelTime="50.25" duration="2" />
    <emission-state time="129" loaded="200" emitted="195" running="171" waiting="5" ended="24" meanWaitingTime="4.17" meanTravelTime="50.25" duration="2" />
    <emission-state time="130" loaded="200" emitted="195" running="171" waiting="5" ended="24" meanWaitingTime="4.17" meanTravelTime="50.25" duration="2" />
    <emission-state time="131" loaded="200" emitted="195" running="170" waiting="5" ended="25" meanWaitingTime="4.17" meanTravelTime="53.48" duration="2" />
    <emission-state time="132" loaded="200" emitted="195" running="170" waiting="5" ended="25" meanWaitingTime="4.17" meanTravelTime="53.48" duration="1" />
    <emission-state time="133" loaded="200" emitted="195" running="170" waiting="5" ended="25" meanWaitingTime="4.17" meanTravelTime="53.48" duration="2" />
    <emission-state time="134" loaded="200" emitted="195" running="169" waiting="5" ended="26" meanWaitingTime="4.17" meanTravelTime="53.08" duration="2" />
    <emission-state time="135" loaded="200" emitted="195" running="169" waiting="5" ended="26" meanWaitingTime="4.17" meanTravelTime="53.08" duration="2" />
    <emission-state time="136" loaded="200" emitted="195" running="167" waiting="5" ended="28" meanWaitingTime="4.17" meanTravelTime="59.00" duration="2" />
    <emission-state time="137" loaded="200" emitted="195" running="167" waiting="5" ended="28" meanWaitingTime="4.17" meanTravelTime="59.00" duration="2" />
    <emission-state time="138" loaded="200" emitted="195" running="167" waiting="5" ended="28" meanWaitingTime="4.17" meanTravelTime="59.00" duration="2" />
    <emission-state time="139" loaded="200" emitted="195" running="167" waiting="5" ended="28" meanWaitingTime="4.17" meanTravelTime="59.00" duration="2" />
    <emission-state time="140" loaded="200" emitted="195" running="167" waiting="5" ended="28" meanWaitingTime="4.17" meanTravelTime="59.00" duration="1" />
    <emission-state time="141" loaded="200" emitted="195" running="167" waiting="5" ended="28" meanWaitingTime="4.17" meanTravelTime="59.00" duration="2" />
    <emission-state time="142" loaded="200" emitted="195" running="167" waiting="5" ended="28" meanWaitingTime="4.17" meanTravelTime="59.00" duration="2" />
    <emission-state time="143" loaded="200" emitted="195" running="167" waiting="5" ended="28" meanWaitingTime="4.17" meanTravelTime="59.00" duration="2" />
    <emission-state time="144" loaded="200" emitted="196" running="167" waiting="4" ended="29" meanWaitingTime="4.88" meanTravelTime="61.83" duration="2" />
    <emission-state time="145" loaded="200" emitted="196" running="167" waiting="4" ended="29" meanWaitingTime="4.88" meanTravelTime="61.83" duration="2" />
    <emission-state time="146" loaded="200" emitted="196" running="167" waiting="4" ended="29" meanWaitingTime="4.88" meanTravelTime="61.83" duration="2" />
    <emission-state time="147" loaded="200" emitted="196" running="167" waiting="4" ended="29" meanWaitingTime="4.88" meanTravelTime="61.83" duration="2" />
    <emission-state time="148" loaded="200" emitted="196" running="166" waiting="4" ended="30" meanWaitingTime="4.88" meanTravelTime="64.70" duration="1" />
    <emission-state time="149" loaded="200" emitted="196" running="166" waiting="4" ended="30" meanWaitingTime="4.88" meanTravelTime="64.70" duration="2" />
    <emission-state time="150" loaded="200" emitted="196" running="165" waiting="4" ended="31" meanWaitingTime="4.88" meanTravelTime="67.45" duration="2" />
    <emission-state time="151" loaded="200" emitted="196" running="165" waiting="4" ended="31" meanWaitingTime="4.88" meanTravelTime="67.45" duration="2" />
    <emission-state time="152" loaded="200" emitted="196" running="164" waiting="4" ended="32" meanWaitingTime="4.88" meanTravelTime="70.09" duration="2" />
    <emission-state time="153" loaded="200" emitted="196" running="164" waiting="4" ended="32" meanWaitingTime="4.88" meanTravelTime="70.09" duration="3" />
    <emission-state time="154" loaded="200" emitted="196" running="163" waiting="4" ended="33" meanWaitingTime="4.88" meanTravelTime="72.64" duration="2" />
    <emission-state time="155" loaded="200" emitted="196" running="163" waiting="4" ended="33" meanWaitingTime="4.88" meanTravelTime="72.64" duration="2" />
    <emission-state time="156" loaded="200" emitted="196" running="163" waiting="4" ended="33" meanWaitingTime="4.88" meanTravelTime="72.64" duration="2" />
    <emission-state time="157" loaded="200" emitted="196" running="163" waiting="4" ended="33" meanWaitingTime="4.88" meanTravelTime="72.64" duration="2" />
    <emission-state time="158" loaded="200" emitted="196" running="163" waiting="4" ended="33" meanWaitingTime="4.88" meanTravelTime="72.64" duration="2" />
    <emission-state time="159" loaded="200" emitted="196" running="163" waiting="4" ended="33" meanWaitingTime="4.88" meanTravelTime="72.64" duration="2" />
    <emission-state time="160" loaded="200" emitted="196" running="163" waiting="4" ended="33" meanWaitingTime="4.88" meanTravelTime="72.64" duration="2" />
    <emission-state time="161" loaded="200" emitted="196" running="163" waiting="4" ended="33" meanWaitingTime="4.88" meanTravelTime="72.64" duration="3" />
    <emission-state time="162" loaded="200" emitted="196" running="163" waiting="4" ended="33" meanWaitingTime="4.88" meanTravelTime="72.64" duration="2" />
    <emission-state time="163" loaded="200" emitted="196" running="163" waiting="4" ended="33" meanWaitingTime="4.88" meanTravelTime="72.64" duration="2" />
    <emission-state time="164" loaded="200" emitted="196" running="163" waiting="4" ended="33" meanWaitingTime="4.88" meanTravelTime="72.64" duration="2" />
    <emission-state time="165" loaded="200" emitted="196" running="162" waiting="4" ended="34" meanWaitingTime="4.88" meanTravelTime="75.35" duration="2" />
    <emission-state time="166" loaded="200" emitted="196" running="162" waiting="4" ended="34" meanWaitingTime="4.88" meanTravelTime="75.35" duration="2" />
    <emission-state time="167" loaded="200" emitted="196" running="162" waiting="4" ended="34" meanWaitingTime="4.88" meanTravelTime="75.35" duration="2" />
    <emission-state time="168" loaded="200" emitted="196" running="161" waiting="4" ended="35" meanWaitingTime="4.88" meanTravelTime="78.00" duration="2" />
    <emission-state time="169" loaded="200" emitted="196" running="161" waiting="4" ended="35" meanWaitingTime="4.88" meanTravelTime="78.00" duration="2" />
    <emission-state time="170" loaded="200" emitted="196" running="161" waiting="4" ended="35" meanWaitingTime="4.88" meanTravelTime="78.00" duration="2" />
    <emission-state time="171" loaded="200" emitted="196" running="161" waiting="4" ended="35" meanWaitingTime="4.88" meanTravelTime="78.00" duration="2" />
    <emission-state time="172" loaded="200" emitted="196" running="161" waiting="4" ended="35" meanWaitingTime="4.88" meanTravelTime="78.00" duration="2" />
    <emission-state time="173" loaded="200" emitted="196" running="161" waiting="4" ended="35" meanWaitingTime="4.88" meanTravelTime="78.00" duration="2" />
    <emission-state time="174" loaded="200" emitted="196" running="160" waiting="4" ended="36" meanWaitingTime="4.88" meanTravelTime="77.19" duration="3" />
    <emission-state time="175" loaded="200" emitted="196" running="160" waiting="4" ended="36" meanWaitingTime="4.88" meanTravelTime="77.19" duration="2" />
    <emission-state time="176" loaded="200" emitted="196" running="160" waiting="4" ended="36" meanWaitingTime="4.88" meanTravelTime="77.19" duration="2" />
    <emission-state time="177" loaded="200" emitted="196" running="160" waiting="4" ended="36" meanWaitingTime="4.88" meanTravelTime="77.19" duration="2" />
    <emission-state time="178" loaded="200" emitted="196" running="159" waiting="4" ended="37" meanWaitingTime="4.88" meanTravelTime="79.92" duration="2" />
    <emission-state time="179" loaded="200" emitted="196" running="159" waiting="4" ended="37" meanWaitingTime="4.88" meanTravelTime="79.92" duration="2" />
    <emission-state time="180" loaded="200" emitted="196" running="158" waiting="4" ended="38" meanWaitingTime="4.88" meanTravelTime="82.55" duration="2" />
    <emission-state time="181" loaded="200" emitted="196" running="158" waiting="4" ended="38" meanWaitingTime="4.88" meanTravelTime="82.55" duration="2" />
    <emission-state time="182" loaded="200" emitted="196" running="158" waiting="4" ended="38" meanWaitingTime="4.88" meanTravelTime="82.55" duration="2" />
    <emission-state time="183" loaded="200" emitted="196" running="158" waiting="4" ended="38" meanWaitingTime="4.88" meanTravelTime="82.55" duration="2" />