<?xml version="1.0"?>

<!-- generated on Thu Jun 10 14:51:58 2010 by SUMO sumo Version 0.11.1
<configuration>

    <input>
        <net-file value="bahia-rivadavia/30/rivadavia.net.xml"/>
        <route-files value="bahia-rivadavia/30/rivadavia.100.rou.xml"/>
        <additional-files value="bahia-rivadavia/30/tl-logic.add.xml"/>
    </input>

    <output>
        <emissions-output value="bahia-rivadavia/30/output-emissions.xml"/>
        <tripinfo-output value="bahia-rivadavia/30/output-tripinfos.xml"/>
        <vehroute-output value="bahia-rivadavia/30/output-vehroutes.xml"/>
    </output>

    <time>
        <begin value="0"/>
        <end value="500"/>
    </time>

    <processing>
        <route-steps value="-1"/>
        <time-to-teleport value="-1"/>
    </processing>

    <report>
        <print-options value="false"/>
        <suppress-warnings value="true"/>
    </report>

    <random_number>
        <srand value="23423"/>
    </random_number>

    <gui_only>
        <gui-settings-file value=""/>
    </gui_only>

</configuration>
-->

<tripinfos>
    <tripinfo id="Rand27" depart="0" departLane="27083337#1_0" departPos="0.00" departSpeed="0.00" departDelay="0" arrival="1" arrivalLane="27083337#1_0" arrivalPos="1.87" arrivalSpeed="1.87" duration="1" routeLength="1.87" waitSteps="0" rerouteNo="0" devices="" vtype="DEFAULT_VEHTYPE" vaporized=""></tripinfo>
    <tripinfo id="Rand63" depart="0" departLane="27053106#1_0" departPos="0.00" departSpeed="0.00" departDelay="0" arrival="47" arrivalLane="27052069#1_0" arrivalPos="3.70" arrivalSpeed="13.50" duration="47" routeLength="739.82" waitSteps="0" rerouteNo="0" devices="" vtype="DEFAULT_VEHTYPE" vaporized=""></tripinfo>
    <tripinfo id="Rand15" depart="3" departLane="27053791#1_0" departPos="0.00" departSpeed="0.00" departDelay="3" arrival="56" arrivalLane="27082624#4_0" arrivalPos="3.96" arrivalSpeed="7.86" duration="53" routeLength="529.87" waitSteps="0" rerouteNo="0" devices="" vtype="DEFAULT_VEHTYPE" vaporized=""></tripinfo>
    <tripinfo id="Rand32" depart="0" departLane="27077992#1_0" departPos="0.00" departSpeed="0.00" departDelay="0" arrival="58" arrivalLane="27082600#5_0" arrivalPos="2.57" arrivalSpeed="7.99" duration="58" routeLength="538.65" waitSteps="2" rerouteNo="0" devices="" vtype="DEFAULT_VEHTYPE" vaporized=""></tripinfo>
    <tripinfo id="Rand0" depart="0" departLane="27082625#0_0" departPos="0.00" departSpeed="0.00" departDelay="0" arrival="59" arrivalLane="27053791#4_0" arrivalPos="2.56" arrivalSpeed="13.39" duration="59" routeLength="476.27" waitSteps="5" rerouteNo="0" devices="" vtype="DEFAULT_VEHTYPE" vaporized=""></tripinfo>
    <tripinfo id="Rand94" depart="3" departLane="27083337#2_0" departPos="0.00" departSpeed="0.00" departDelay="3" arrival="68" arrivalLane="-27494703#1_0" arrivalPos="4.24" arrivalSpeed="8.00" duration="65" routeLength="484.62" waitSteps="22" rerouteNo="0" devices="" vtype="DEFAULT_VEHTYPE" vaporized=""></tripinfo>
    <tripinfo id="Rand42" depart="0" departLane="27056034#2_0" departPos="0.00" departSpeed="0.00" departDelay="0" arrival="71" arrivalLane="27056035#1_0" arrivalPos="6.28" arrivalSpeed="8.45" duration="71" routeLength="320.90" waitSteps="26" rerouteNo="0" devices="" vtype="DEFAULT_VEHTYPE" vaporized=""></tripinfo>
    <tripinfo id="Rand106" depart="0" departLane="27082604#3_0" departPos="0.00" departSpeed="0.00" departDelay="0" arrival="72" arrivalLane="27082629#6_0" arrivalPos="6.65" arrivalSpeed="21.57" duration="72" routeLength="328.74" waitSteps="39" rerouteNo="0" devices="" vtype="DEFAULT_VEHTYPE" vaporized=""></tripinfo>
    <tripinfo id="Rand116" depart="0" departLane="27082616#1_0" departPos="0.00" departSpeed="0.00" departDelay="0" arrival="72" arrivalLane="27082600#2_0" arrivalPos="2.47" arrivalSpeed="5.40" duration="72" routeLength="753.44" waitSteps="0" rerouteNo="0" devices="" vtype="DEFAULT_VEHTYPE" vaporized=""></tripinfo>
    <tripinfo id="Rand108" depart="0" departLane="27082600#1_0" departPos="0.00" departSpeed="0.00" departDelay="0" arrival="75" arrivalLane="27052069#1_0" arrivalPos="12.67" arrivalSpeed="13.83" duration="75" routeLength="1032.45" waitSteps="0" rerouteNo="0" devices="" vtype="DEFAULT_VEHTYPE" vaporized=""></tripinfo>
    <tripinfo id="Rand77" depart="3" departLane="27082629#0_0" departPos="0.00" departSpeed="0.00" departDelay="3" arrival="76" arrivalLane="27083324#0_0" arrivalPos="4.98" arrivalSpeed="6.44" duration="73" routeLength="640.41" waitSteps="12" rerouteNo="0" devices="" vtype="DEFAULT_VEHTYPE" vaporized=""></tripinfo>
    <tripinfo id="Rand19" depart="0" departLane="27082616#5_0" departPos="0.00" departSpeed="0.00" departDelay="0" arrival="80" arrivalLane="27082600#2_0" arrivalPos="5.27" arrivalSpeed="13.01" duration="80" routeLength="919.29" waitSteps="0" rerouteNo="0" devices="" vtype="DEFAULT_VEHTYPE" vaporized=""></tripinfo>
    <tripinfo id="Rand100" depart="0" departLane="27122600#0_0" departPos="0.00" departSpeed="0.00" departDelay="0" arrival="89" arrivalLane="27083324#0_0" arrivalPos="3.50" arrivalSpeed="6.21" duration="89" routeLength="796.03" waitSteps="19" rerouteNo="0" devices="" vtype="DEFAULT_VEHTYPE" vaporized=""></tripinfo>
    <tripinfo id="Rand52" depart="3" departLane="27082624#4_0" departPos="0.00" departSpeed="0.00" departDelay="3" arrival="92" arrivalLane="27083324#1_0" arrivalPos="0.31" arrivalSpeed="13.43" duration="89" routeLength="543.97" waitSteps="30" rerouteNo="0" devices="" vtype="DEFAULT_VEHTYPE" vaporized=""></tripinfo>
    <tripinfo id="Rand89" depart="0" departLane="28813885#4_0" departPos="0.00" departSpeed="0.00" departDelay="0" arrival="101" arrivalLane="27077992#3_0" arrivalPos="8.04" arrivalSpeed="12.91" duration="101" routeLength="915.19" waitSteps="16" rerouteNo="0" devices="" vtype="DEFAULT_VEHTYPE" vaporized=""></tripinfo>
    <tripinfo id="Rand120" depart="0" departLane="27053170#3_0" departPos="0.00" departSpeed="0.00" departDelay="0" arrival="102" arrivalLane="27083324#0_0" arrivalPos="2.54" arrivalSpeed="6.05" duration="102" routeLength="1091.31" waitSteps="1" rerouteNo="0" devices="" vtype="DEFAULT_VEHTYPE" vaporized=""></tripinfo>
    <tripinfo id="Rand61" depart="0" departLane="-27082628#2_0" departPos="0.00" departSpeed="0.00" departDelay="0" arrival="102" arrivalLane="27083324#3_0" arrivalPos="2.53" arrivalSpeed="6.37" duration="102" routeLength="1349.87" waitSteps="0" rerouteNo="0" devices="" vtype="DEFAULT_VEHTYPE" vaporized=""></tripinfo>
    <tripinfo id="Rand55" depart="0" departLane="27056027#0_0" departPos="0.00" departSpeed="0.00" departDelay="0" arrival="102" arrivalLane="-28629700#2_1" arrivalPos="1.35" arrivalSpeed="3.75" duration="102" routeLength="665.44" waitSteps="26" rerouteNo="0" devices="" vtype="DEFAULT_VEHTYPE" vaporized=""></tripinfo>
    <tripinfo id="Rand71" depart="0" departLane="28813885#3_0" departPos="0.00" departSpeed="0.00" departDelay="0" arrival="104" arrivalLane="27082625#1_0" arrivalPos="5.94" arrivalSpeed="6.66" duration="104" routeLength="1049.50" waitSteps="9" rerouteNo="0" devices="" vtype="DEFAULT_VEHTYPE" vaporized=""></tripinfo>
    <tripinfo id="Rand22" depart="0" departLane="27082625#2_0" departPos="0.00" departSpeed="0.00" departDelay="0" arrival="105" arrivalLane="27078417#0_0" arrivalPos="10.51" arrivalSpeed="13.27" duration="105" routeLength="736.82" waitSteps="26" rerouteNo="0" devices="" vtype="DEFAULT_VEHTYPE" vaporized=""></tripinfo>
    <tripinfo id="Rand6" depart="3" departLane="27082625#2_0" departPos="0.00" departSpeed="0.00" departDelay="3" arrival="105" arrivalLane="27082629#5_0" arrivalPos="12.22" arrivalSpeed="19.02" duration="102" routeLength="784.92" waitSteps="22" rerouteNo="0" devices="" vtype="DEFAULT_VEHTYPE" vaporized=""></tripinfo>
    <tripinfo id="Rand79" depart="0" departLane="27052069#1_0" departPos="0.00" departSpeed="0.00" departDelay="0" arrival="109" arrivalLane="27053171#0_0" arrivalPos="20.60" arrivalSpeed="21.72" duration="109" routeLength="1063.03" waitSteps="24" rerouteNo="0" devices="" vtype="DEFAULT_VEHTYPE" vaporized=""></tripinfo>
    <tripinfo id="Rand28" depart="0" departLane="27082624#4_0" departPos="0.00" departSpeed="0.00" departDelay="0" arrival="110" arrivalLane="27082604#1_0" arrivalPos="4.51" arrivalSpeed="7.87" duration="110" routeLength="741.93" waitSteps="32" rerouteNo="0" devices="" vtype="DEFAULT_VEHTYPE" vaporized=""></tripinfo>
    <tripinfo id="Rand23" depart="0" departLane="27083324#0_0" departPos="0.00" departSpeed="0.00" departDelay="0" arrival="112" arrivalLane="27082628#3_0" arrivalPos="17.73" arrivalSpeed="27.62" duration="112" routeLength="1115.38" waitSteps="27" rerouteNo="0" devices="" vtype="DEFAULT_VEHTYPE" vaporized=""></tripinfo>
    <tripinfo id="Rand105" depart="0" departLane="28813885#5_0" departPos="0.00" departSpeed="0.00" departDelay="0" arrival="114" arrivalLane="-28629700#0_0" arrivalPos="0.64" arrivalSpeed="27.55" duration="114" routeLength="938.57" waitSteps="44" rerouteNo="0" devices="" vtype="DEFAULT_VEHTYPE" vaporized=""></tripinfo>
    <tripinfo id="Rand43" depart="1" departLane="-28629700#2_0" departPos="0.00" departSpeed="0.00" departDelay="1" arrival="115" arrivalLane="27122600#1_0" arrivalPos="0.04" arrivalSpeed="4.10" duration="114" routeLength="616.72" waitSteps="52" rerouteNo="0" devices="" vtype="DEFAULT_VEHTYPE" vaporized=""></tripinfo>
    <tripinfo id="Rand73" depart="3" departLane="27053170#3_0" departPos="0.00" departSpeed="0.00" departDelay="3" arrival="117" arrivalLane="27077992#4_0" arrivalPos="0.02" arrivalSpeed="4.22" duration="114" routeLength="1289.42" waitSteps="0" rerouteNo="0" devices="" vtype="DEFAULT_VEHTYPE" vaporized=""></tripinfo>
    <tripinfo id="Rand87" depart="0" departLane="27052071#0_0" departPos="0.00" departSpeed="0.00" departDelay="0" arrival="117" arrivalLane="27056027#3_0" arrivalPos="3.61" arrivalSpeed="6.83" duration="117" routeLength="1204.34" waitSteps="0" rerouteNo="0" devices="" vtype="DEFAULT_VEHTYPE" vaporized=""></tripinfo>
    <tripinfo id="Rand128" depart="0" departLane="27082604#1_0" departPos="0.00" departSpeed="0.00" departDelay="0" arrival="118" arrivalLane="27053782#1_0" arrivalPos="5.74" arrivalSpeed="13.65" duration="118" routeLength="1444.36" waitSteps="0" rerouteNo="0" devices="" vtype="DEFAULT_VEHTYPE" vaporized=""></tripinfo>
    <tripinfo id="Rand36" depart="0" departLane="-28629700#2_0" departPos="0.00" departSpeed="0.00" departDelay="0" arrival="119" arrivalLane="27083324#3_0" arrivalPos="1.09" arrivalSpeed="5.72" duration="119" routeLength="1421.68" waitSteps="2" rerouteNo="0" devices="" vtype="DEFAULT_VEHTYPE" vaporized=""></tripinfo>
    <tripinfo id="Rand5" depart="0" departLane="-27082628#0_0" departPos="0.00" departSpeed="0.00" departDelay="0" arrival="122" arrivalLane="27082628#4_1" arrivalPos="16.93" arrivalSpeed="27.51" duration="122" routeLength="907.08" waitSteps="54" rerouteNo="0" devices="" vtype="DEFAULT_VEHTYPE" vaporized=""></tripinfo>
    <tripinfo id="Rand56" depart="0" departLane="27082628#4_0" departPos="0.00" departSpeed="0.00" departDelay="0" arrival="122" arrivalLane="27082617#2_0" arrivalPos="0.04" arrivalSpeed="13.67" duration="122" routeLength="1438.98" waitSteps="0" rerouteNo="0" devices="" vtype="DEFAULT_VEHTYPE" vaporized=""></tripinfo>
    <tripinfo id="Rand34" depart="6" departLane="27082616#1_0" departPos="0.00" departSpeed="0.00" departDelay="6" arrival="123" arrivalLane="27082629#5_0" arrivalPos="4.75" arrivalSpeed="7.99" duration="117" routeLength="1094.14" waitSteps="10" rerouteNo="0" devices="" vtype="DEFAULT_VEHTYPE" vaporized=""></tripinfo>
    <tripinfo id="Rand66" depart="0" departLane="27082600#2_0" departPos="0.00" departSpeed="0.00" departDelay="0" arrival="130" arrivalLane="27053790#4_0" arrivalPos="1.05" arrivalSpeed="13.01" duration="130" routeLength="1395.96" waitSteps="8" rerouteNo="0" devices="" vtype="DEFAULT_VEHTYPE" vaporized=""></tripinfo>
    <tripinfo id="Rand113" depart="3" departLane="27122600#0_0" departPos="0.00" departSpeed="0.00" departDelay="3" arrival="130" arrivalLane="27053790#2_0" arrivalPos="7.56" arrivalSpeed="13.79" duration="127" routeLength="1149.90" waitSteps="21" rerouteNo="0" devices="" vtype="DEFAULT_VEHTYPE" vaporized=""></tripinfo>
    <tripinfo id="Rand30" depart="0" departLane="27494703#0_0" departPos="0.00" departSpeed="0.00" departDelay="0" arrival="131" arrivalLane="27082604#0_0" arrivalPos="4.53" arrivalSpeed="13.69" duration="131" routeLength="822.85" waitSteps="46" rerouteNo="0" devices="" vtype="DEFAULT_VEHTYPE" vaporized=""></tripinfo>
    <tripinfo id="Rand21" depart="0" departLane="27052069#0_0" departPos="0.00" departSpeed="0.00" departDelay="0" arrival="138" arrivalLane="27056036#2_0" arrivalPos="5.27" arrivalSpeed="8.22" duration="138" routeLength="1358.24" waitSteps="0" rerouteNo="0" devices="" vtype="DEFAULT_VEHTYPE" vaporized=""></tripinfo>
    <tripinfo id="Rand126" depart="0" departLane="27053790#1_0" departPos="0.00" departSpeed="0.00" departDelay="0" arrival="138" arrivalLane="27078417#3_0" arrivalPos="2.10" arrivalSpeed="5.93" duration="138" routeLength="1233.25" waitSteps="26" rerouteNo="0" devices="" vtype="DEFAULT_VEHTYPE" vaporized=""></tripinfo>
    <tripinfo id="Rand49" depart="0" departLane="27082628#0_0" departPos="0.00" departSpeed="0.00" departDelay="0" arrival="139" arrivalLane="27053791#5_0" arrivalPos="2.00" arrivalSpeed="6.19" duration="139" routeLength="1069.76" waitSteps="32" rerouteNo="0" devices="" vtype="DEFAULT_VEHTYPE" vaporized=""></tripinfo>
    <tripinfo id="Rand46" depart="0" departLane="-28629700#1_0" departPos="0.00" departSpeed="0.00" departDelay="0" arrival="145" arrivalLane="27053170#4_0" arrivalPos="8.51" arrivalSpeed="13.87" duration="145" routeLength="1693.20" waitSteps="0" rerouteNo="0" devices="" vtype="DEFAULT_VEHTYPE" vaporized=""></tripinfo>
    <tripinfo id="Rand60" depart="3" departLane="27052071#1_0" departPos="0.00" departSpeed="0.00" departDelay="3" arrival="150" arrivalLane="27083324#0_0" arrivalPos="3.46" arrivalSpeed="6.93" duration="147" routeLength="1441.54" waitSteps="9" rerouteNo="0" devices="" vtype="DEFAULT_VEHTYPE" vaporized=""></tripinfo>
    <tripinfo id="Rand10" depart="0" departLane="27055797#1_0" departPos="0.00" departSpeed="0.00" departDelay="0" arrival="153" arrivalLane="27077992#3_0" arrivalPos="7.49" arrivalSpeed="13.06" duration="153" routeLength="1695.89" waitSteps="0" rerouteNo="0" devices="" vtype="DEFAULT_VEHTYPE" vaporized=""></tripinfo>
    <tripinfo id="Rand112" depart="0" departLane="27083337#3_0" departPos="0.00" departSpeed="0.00" departDelay="0" arrival="158" arrivalLane="28813885#5_0" arrivalPos="2.03" arrivalSpeed="7.51" duration="158" routeLength="1008.87" waitSteps="48" rerouteNo="0" devices="" vtype="DEFAULT_VEHTYPE" vaporized=""></tripinfo>
    <tripinfo id="Rand13" depart="3" departLane="27082616#1_0" departPos="0.00" departSpeed="0.00" departDelay="3" arrival="164" arrivalLane="27154183#3_0" arrivalPos="0.90" arrivalSpeed="13.17" duration="161" routeLength="1774.08" waitSteps="11" rerouteNo="0" devices="" vtype="DEFAULT_VEHTYPE" vaporized=""></tripinfo>
    <tripinfo id="Rand129" depart="0" departLane="27053791#1_0" departPos="0.00" departSpeed="0.00" departDelay="0" arrival="173" arrivalLane="27154183#3_0" arrivalPos="8.07" arrivalSpeed="13.21" duration="173" routeLength="1861.56" waitSteps="22" rerouteNo="0" devices="" vtype="DEFAULT_VEHTYPE" vaporized=""></tripinfo>
    <tripinfo id="Rand117" depart="0" departLane="27053106#0_0" departPos="0.00" departSpeed="0.00" departDelay="0" arrival="173" arrivalLane="27053170#2_0" arrivalPos="4.52" arrivalSpeed="6.75" duration="173" routeLength="3370.87" waitSteps="0" rerouteNo="0" devices="" vtype="DEFAULT_VEHTYPE" vaporized=""></tripinfo>
    <tripinfo id="Rand7" depart="0" departLane="27053790#0_0" departPos="0.00" departSpeed="0.00" departDelay="0" arrival="175" arrivalLane="27082625#1_0" arrivalPos="1.63" arrivalSpeed="7.14" duration="175" routeLength="1393.90" waitSteps="41" rerouteNo="0" devices="" vtype="DEFAULT_VEHTYPE" vaporized=""></tripinfo>
    <tripinfo id="Rand125" depart="0" departLane="-27082628#5_0" departPos="0.00" departSpeed="0.00" departDelay="0" arrival="178" arrivalLane="27082604#2_0" arrivalPos="1.99" arrivalSpeed="6.05" duration="178" routeLength="2635.29" waitSteps="33" rerouteNo="0" devices="" vtype="DEFAULT_VEHTYPE" vaporized=""></tripinfo>
    <tripinfo id="Rand54" depart="0" departLane="27053782#1_0" departPos="0.00" departSpeed="0.00" departDelay="0" arrival="191" arrivalLane="27082625#2_0" arrivalPos="12.03" arrivalSpeed="13.20" duration="191" routeLength="1454.97" waitSteps="44" rerouteNo="0" devices="" vtype="DEFAULT_VEHTYPE" vaporized=""></tripinfo>
    <tripinfo id="Rand45" depart="0" departLane="27082617#4_0" departPos="0.00" departSpeed="0.00" departDelay="0" arrival="192" arrivalLane="27082624#3_0" arrivalPos="1.88" arrivalSpeed="13.65" duration="192" routeLength="1615.92" waitSteps="61" rerouteNo="0" devices="" vtype="DEFAULT_VEHTYPE" vaporized=""></tripinfo>
    <tripinfo id="Rand110" depart="0" departLane="27082624#3_0" departPos="0.00" departSpeed="0.00" departDelay="0" arrival="192" arrivalLane="27082625#3_0" arrivalPos="1.67" arrivalSpeed="13.81" duration="192" routeLength="1347.30" waitSteps="43" rerouteNo="0" devices="" vtype="DEFAULT_VEHTYPE" vaporized=""></tripinfo>
    <tripinfo id="Rand53" depart="6" departLane="27122600#0_0" departPos="0.00" departSpeed="0.00" departDelay="6" arrival="192" arrivalLane="28629700#3_0" arrivalPos="0.35" arrivalSpeed="5.25" duration="186" routeLength="1145.19" waitSteps="66" rerouteNo="0" devices="" vtype="DEFAULT_VEHTYPE" vaporized=""></tripinfo>
    <tripinfo id="Rand123" depart="0" departLane="27053791#4_0" departPos="0.00" departSpeed="0.00" departDelay="0" arrival="200" arrivalLane="27053782#2_0" arrivalPos="2.02" arrivalSpeed="5.03" duration="200" routeLength="1760.85" waitSteps="17" rerouteNo="0" devices="" vtype="DEFAULT_VEHTYPE" vaporized=""></tripinfo>
    <tripinfo id="Rand84" depart="6" departLane="27055797#0_0" departPos="0.00" departSpeed="0.00" departDelay="6" arrival="206" arrivalLane="27052069#0_0" arrivalPos="9.59" arrivalSpeed="10.25" duration="200" routeLength="1362.43" waitSteps="61" rerouteNo="0" devices="" vtype="DEFAULT_VEHTYPE" vaporized=""></tripinfo>
    <tripinfo id="Rand102" depart="0" departLane="27053790#3_0" departPos="0.00" departSpeed="0.00" departDelay="0" arrival="210" arrivalLane="-28629700#0_0" arrivalPos="14.42" arrivalSpeed="27.30" duration="210" routeLength="1817.03" waitSteps="74" rerouteNo="0" devices="" vtype="DEFAULT_VEHTYPE" vaporized=""></tripinfo>
    <tripinfo id="Rand48" depart="0" departLane="28629700#2_0" departPos="0.00" departSpeed="0.00" departDelay="0" arrival="210" arrivalLane="27082628#3_0" arrivalPos="25.09" arrivalSpeed="27.38" duration="210" routeLength="1859.21" waitSteps="47" rerouteNo="0" devices="" vtype="DEFAULT_VEHTYPE" vaporized=""></tripinfo>
    <tripinfo id="Rand58" depart="3" departLane="27053106#0_0" departPos="0.00" departSpeed="0.00" departDelay="3" arrival="213" arrivalLane="-28629700#0_0" arrivalPos="2.76" arrivalSpeed="27.06" duration="210" routeLength="3955.26" waitSteps="6" rerouteNo="0" devices="" vtype="DEFAULT_VEHTYPE" vaporized=""></tripinfo>
    <tripinfo id="Rand96" depart="3" departLane="27053791#4_0" departPos="0.00" departSpeed="0.00" departDelay="3" arrival="215" arrivalLane="27082617#4_0" arrivalPos="6.41" arrivalSpeed="13.54" duration="212" routeLength="1969.98" waitSteps="12" rerouteNo="0" devices="" vtype="DEFAULT_VEHTYPE" vaporized=""></tripinfo>
    <tripinfo id="Rand1" depart="0" departLane="27056034#3_0" departPos="0.00" departSpeed="0.00" departDelay="0" arrival="215" arrivalLane="28813885#2_0" arrivalPos="1.41" arrivalSpeed="21.52" duration="215" routeLength="1503.47" waitSteps="57" rerouteNo="0" devices="" vtype="DEFAULT_VEHTYPE" vaporized=""></tripinfo>
    <tripinfo id="Rand9" depart="0" departLane="27077992#2_0" departPos="0.00" departSpeed="0.00" departDelay="0" arrival="215" arrivalLane="27056027#0_0" arrivalPos="3.50" arrivalSpeed="7.69" duration="215" routeLength="1852.73" waitSteps="71" rerouteNo="0" devices="" vtype="DEFAULT_VEHTYPE" vaporized=""></tripinfo>
    <tripinfo id="Rand51" depart="3" departLane="28629700#0_0" departPos="0.00" departSpeed="0.00" departDelay="3" arrival="216" arrivalLane="27082629#1_0" arrivalPos="12.30" arrivalSpeed="22.20" duration="213" routeLength="2234.73" waitSteps="74" rerouteNo="0" devices="" vtype="DEFAULT_VEHTYPE" vaporized=""></tripinfo>
    <tripinfo id="Rand40" depart="6" departLane="27053791#1_0" departPos="0.00" departSpeed="0.00" departDelay="6" arrival="216" arrivalLane="27122600#0_0" arrivalPos="12.94" arrivalSpeed="22.09" duration="210" routeLength="1653.40" waitSteps="62" rerouteNo="0" devices="" vtype="DEFAULT_VEHTYPE" vaporized=""></tripinfo>
    <tripinfo id="Rand98" depart="3" departLane="-27494703#1_0" departPos="0.00" departSpeed="0.00" departDelay="3" arrival="222" arrivalLane="28813885#3_0" arrivalPos="2.49" arrivalSpeed="6.09" duration="219" routeLength="1305.76" waitSteps="69" rerouteNo="0" devices="" vtype="DEFAULT_VEHTYPE" vaporized=""></tripinfo>
    <tripinfo id="Rand86" depart="3" departLane="27082617#4_0" departPos="0.00" departSpeed="0.00" departDelay="3" arrival="225" arrivalLane="27052069#1_0" arrivalPos="9.40" arrivalSpeed="12.94" duration="222" routeLength="1910.46" waitSteps="80" rerouteNo="0" devices="" vtype="DEFAULT_VEHTYPE" vaporized=""></tripinfo>
    <tripinfo id="Rand92" depart="0" departLane="27083337#0_0" departPos="0.00" departSpeed="0.00" departDelay="0" arrival="229" arrivalLane="27083337#1_0" arrivalPos="4.52" arrivalSpeed="8.02" duration="229" routeLength="4776.79" waitSteps="0" rerouteNo="0" devices="" vtype="DEFAULT_VEHTYPE" vaporized=""></tripinfo>
    <tripinfo id="Rand103" depart="0" departLane="-27494703#1_0" departPos="0.00" departSpeed="0.00" departDelay="0" arrival="229" arrivalLane="27053791#1_0" arrivalPos="1.09" arrivalSpeed="3.75" duration="229" routeLength="1165.81" waitSteps="91" rerouteNo="0" devices="" vtype="DEFAULT_VEHTYPE" vaporized=""></tripinfo>
    <tripinfo id="Rand72" depart="0" departLane="27082629#2_0" departPos="0.00" departSpeed="0.00" departDelay="0" arrival="230" arrivalLane="27052067#4_0" arrivalPos="3.68" arrivalSpeed="5.13" duration="230" routeLength="1262.15" waitSteps="92" rerouteNo="0" devices="" vtype="DEFAULT_VEHTYPE" vaporized=""></tripinfo>
    <tripinfo id="Rand91" depart="3" departLane="27053790#0_0" departPos="0.00" departSpeed="0.00" departDelay="3" arrival="234" arrivalLane="27052071#1_0" arrivalPos="2.62" arrivalSpeed="13.24" duration="231" routeLength="2181.44" waitSteps="46" rerouteNo="0" devices="" vtype="DEFAULT_VEHTYPE" vaporized=""></tripinfo>
    <tripinfo id="Rand68" depart="0" departLane="27052067#3_0" departPos="0.00" departSpeed="0.00" departDelay="0" arrival="242" arrivalLane="-27494703#0_0" arrivalPos="5.47" arrivalSpeed="5.65" duration="242" routeLength="1297.04" waitSteps="108" rerouteNo="0" devices="" vtype="DEFAULT_VEHTYPE" vaporized=""></tripinfo>
    <tripinfo id="Rand85" depart="0" departLane="27122600#2_0" departPos="0.00" departSpeed="0.00" departDelay="0" arrival="242" arrivalLane="27053106#3_0" arrivalPos="3.17" arrivalSpeed="6.42" duration="242" routeLength="1955.66" waitSteps="67" rerouteNo="0" devices="" vtype="DEFAULT_VEHTYPE" vaporized=""></tripinfo>
    <tripinfo id="Rand75" depart="0" departLane="27082629#0_0" departPos="0.00" departSpeed="0.00" departDelay="0" arrival="244" arrivalLane="27494703#1_0" arrivalPos="2.44" arrivalSpeed="6.41" duration="244" routeLength="1381.06" waitSteps="94" rerouteNo="0" devices="" vtype="DEFAULT_VEHTYPE" vaporized=""></tripinfo>
    <tripinfo id="Rand81" depart="0" departLane="27082617#3_0" departPos="0.00" departSpeed="0.00" departDelay="0" arrival="246" arrivalLane="27494703#1_0" arrivalPos="0.60" arrivalSpeed="7.21" duration="246" routeLength="2053.62" waitSteps="59" rerouteNo="0" devices="" vtype="DEFAULT_VEHTYPE" vaporized=""></tripinfo>
    <tripinfo id="Rand90" depart="0" departLane="28408742#2_0" departPos="0.00" departSpeed="0.00" departDelay="0" arrival="246" arrivalLane="27053106#3_0" arrivalPos="2.18" arrivalSpeed="5.55" duration="246" routeLength="2057.01" waitSteps="50" rerouteNo="0" devices="" vtype="DEFAULT_VEHTYPE" vaporized=""></tripinfo>
    <tripinfo id="Rand124" depart="0" departLane="27056035#0_0" departPos="0.00" departSpeed="0.00" departDelay="0" arrival="249" arrivalLane="28629700#0_1" arrivalPos="4.49" arrivalSpeed="7.05" duration="249" routeLength="2147.86" waitSteps="97" rerouteNo="0" devices="" vtype="DEFAULT_VEHTYPE" vaporized=""></tripinfo>
    <tripinfo id="Rand39" depart="0" departLane="27494703#1_0" departPos="0.00" departSpeed="0.00" departDelay="0" arrival="249" arrivalLane="27082628#0_0" arrivalPos="5.52" arrivalSpeed="7.28" duration="249" routeLength="1372.40" waitSteps="85" rerouteNo="0" devices="" vtype="DEFAULT_VEHTYPE" vaporized=""></tripinfo>
    <tripinfo id="Rand59" depart="0" departLane="27077992#4_0" departPos="0.00" departSpeed="0.00" departDelay="0" arrival="250" arrivalLane="27056034#3_0" arrivalPos="2.98" arrivalSpeed="7.21" duration="250" routeLength="1829.35" waitSteps="89" rerouteNo="0" devices="" vtype="DEFAULT_VEHTYPE" vaporized=""></tripinfo>
    <tripinfo id="Rand62" depart="0" departLane="27486761_0" departPos="0.00" departSpeed="0.00" departDelay="0" arrival="252" arrivalLane="27053106#2_0" arrivalPos="4.64" arrivalSpeed="6.60" duration="252" routeLength="1876.50" waitSteps="64" rerouteNo="0" devices="" vtype="DEFAULT_VEHTYPE" vaporized=""></tripinfo>
    <tripinfo id="Rand127" depart="0" departLane="-28629700#0_0" departPos="0.00" departSpeed="0.00" departDelay="0" arrival="263" arrivalLane="27082624#4_0" arrivalPos="6.03" arrivalSpeed="8.28" duration="263" routeLength="3871.31" waitSteps="40" rerouteNo="0" devices="" vtype="DEFAULT_VEHTYPE" vaporized=""></tripinfo>
    <tripinfo id="Rand119" depart="0" departLane="27053106#2_0" departPos="0.00" departSpeed="0.00" departDelay="0" arrival="263" arrivalLane="27053791#5_0" arrivalPos="3.22" arrivalSpeed="7.89" duration="263" routeLength="2021.78" waitSteps="78" rerouteNo="0" devices="" vtype="DEFAULT_VEHTYPE" vaporized=""></tripinfo>
    <tripinfo id="Rand78" depart="0" departLane="27154183#2_0" departPos="0.00" departSpeed="0.00" departDelay="0" arrival="264" arrivalLane="27082629#7_0" arrivalPos="12.24" arrivalSpeed="22.09" duration="264" routeLength="1899.26" waitSteps="71" rerouteNo="0" devices="" vtype="DEFAULT_VEHTYPE" vaporized=""></tripinfo>
    <tripinfo id="Rand12" depart="0" departLane="27639462#0_0" departPos="0.00" departSpeed="0.00" departDelay="0" arrival="271" arrivalLane="27083337#2_0" arrivalPos="2.37" arrivalSpeed="5.28" duration="271" routeLength="1689.12" waitSteps="85" rerouteNo="0" devices="" vtype="DEFAULT_VEHTYPE" vaporized=""></tripinfo>
    <tripinfo id="Rand76" depart="0" departLane="27082624#1_0" departPos="0.00" departSpeed="0.00" departDelay="0" arrival="276" arrivalLane="27639462#0_0" arrivalPos="9.55" arrivalSpeed="12.87" duration="276" routeLength="2308.49" waitSteps="65" rerouteNo="0" devices="" vtype="DEFAULT_VEHTYPE" vaporized=""></tripinfo>
    <tripinfo id="Rand74" depart="0" departLane="27053791#0_0" departPos="0.00" departSpeed="0.00" departDelay="0" arrival="280" arrivalLane="27639510_0" arrivalPos="5.52" arrivalSpeed="13.38" duration="280" routeLength="1622.70" waitSteps="100" rerouteNo="0" devices="" vtype="DEFAULT_VEHTYPE" vaporized=""></tripinfo>
    <tripinfo id="Rand38" depart="0" departLane="27083337#2_0" departPos="0.00" departSpeed="0.00" departDelay="0" arrival="283" arrivalLane="27053786#5_0" arrivalPos="3.94" arrivalSpeed="6.92" duration="283" routeLength="1774.74" waitSteps="82" rerouteNo="0" devices="" vtype="DEFAULT_VEHTYPE" vaporized=""></tripinfo>
    <tripinfo id="Rand3" depart="0" departLane="28813885#0_0" departPos="0.00" departSpeed="0.00" departDelay="0" arrival="284" arrivalLane="27122600#4_0" arrivalPos="3.84" arrivalSpeed="7.25" duration="284" routeLength="2670.53" waitSteps="90" rerouteNo="0" devices="" vtype="DEFAULT_VEHTYPE" vaporized=""></tripinfo>
    <tripinfo id="Rand101" depart="0" departLane="27082616#0_0" departPos="0.00" departSpeed="0.00" departDelay="0" arrival="285" arrivalLane="27639510_0" arrivalPos="12.32" arrivalSpeed="13.66" duration="285" routeLength="3082.75" waitSteps="44" rerouteNo="0" devices="" vtype="DEFAULT_VEHTYPE" vaporized=""></tripinfo>
    <tripinfo id="Rand18" depart="3" departLane="27053790#1_0" departPos="0.00" departSpeed="0.00" departDelay="3" arrival="296" arrivalLane="27639462#1_0" arrivalPos="5.78" arrivalSpeed="7.99" duration="293" routeLength="2539.17" waitSteps="58" rerouteNo="0" devices="" vtype="DEFAULT_VEHTYPE" vaporized=""></tripinfo>
    <tripinfo id="Rand8" depart="0" departLane="-27494703#0_0" departPos="0.00" departSpeed="0.00" departDelay="0" arrival="301" arrivalLane="-27082628#1_1" arrivalPos="3.16" arrivalSpeed="6.52" duration="301" routeLength="1730.46" waitSteps="93" rerouteNo="0" devices="" vtype="DEFAULT_VEHTYPE" vaporized=""></tripinfo>
    <tripinfo id="Rand88" depart="0" departLane="27082624#5_0" departPos="0.00" departSpeed="0.00" departDelay="0" arrival="309" arrivalLane="-27082628#1_1" arrivalPos="2.63" arrivalSpeed="4.88" duration="309" routeLength="1970.31" waitSteps="94" rerouteNo="0" devices="" vtype="DEFAULT_VEHTYPE" vaporized=""></tripinfo>
    <tripinfo id="Rand35" depart="3" departLane="27082616#5_0" departPos="0.00" departSpeed="0.00" departDelay="3" arrival="316" arrivalLane="27053790#2_0" arrivalPos="0.15" arrivalSpeed="3.52" duration="313" routeLength="1938.34" waitSteps="124" rerouteNo="0" devices="" vtype="DEFAULT_VEHTYPE" vaporized=""></tripinfo>