<?xml version="1.0"?>

<!-- generated on Thu Jun 10 14:51:58 2010 by SUMO sumo Version 0.11.1
<configuration>

    <input>
        <net-file value="bahia-rivadavia/30/rivadavia.net.xml"/>
        <route-files value="bahia-rivadavia/30/rivadavia.100.rou.xml"/>
        <additional-files value="bahia-rivadavia/30/tl-logic.add.xml"/>
    </input>

    <output>
        <emissions-output value="bahia-rivadavia/30/output-emissions.xml"/>
        <tripinfo-output value="bahia-rivadavia/30/output-tripinfos.xml"/>
        <vehroute-output value="bahia-rivadavia/30/output-vehroutes.xml"/>
    </output>

    <time>
        <begin value="0"/>
        <end value="500"/>
    </time>

    <processing>
        <route-steps value="-1"/>
        <time-to-teleport value="-1"/>
    </processing>

    <report>
        <print-options value="false"/>
        <suppress-warnings value="true"/>
    </report>

    <random_number>
        <srand value="23423"/>
    </random_number>

    <gui_only>
        <gui-settings-file value=""/>
    </gui_only>

</configuration>
-->

<routes>
    <vehicle id="Rand27" depart="0" arrival="1">
        <route edges="27083337#1"/>
   </vehicle>

    <vehicle id="Rand63" depart="0" arrival="47">
        <route edges="27053106#1 27053106#2 27053106#3 27052071#0 27052069#1"/>
   </vehicle>

    <vehicle id="Rand15" depart="3" arrival="56">
        <route edges="27053791#1 27053791#2 27082624#2 27082624#3 27082624#4"/>
   </vehicle>

    <vehicle id="Rand32" depart="0" arrival="58">
        <route edges="27077992#1 27077992#2 27082600#4 27082600#5"/>
   </vehicle>

    <vehicle id="Rand0" depart="0" arrival="59">
        <route edges="27082625#0 27082625#1 27082625#2 27082624#1 27053791#3 27053791#4"/>
   </vehicle>

    <vehicle id="Rand94" depart="3" arrival="68">
        <route edges="27083337#2 27083337#3 27083337#4 28629700#2 -27494703#1"/>
   </vehicle>

    <vehicle id="Rand42" depart="0" arrival="71">
        <route edges="27056034#2 -27494703#0 27056035#1"/>
   </vehicle>

    <vehicle id="Rand106" depart="0" arrival="72">
        <route edges="27082604#3 -27082628#0 27082629#5 27082629#6"/>
   </vehicle>

    <vehicle id="Rand116" depart="0" arrival="72">
        <route edges="27082616#1 27082616#2 27082616#3 27053782#2 27082600#2"/>
   </vehicle>

    <vehicle id="Rand108" depart="0" arrival="75">
        <route edges="27082600#1 27053782#3 28813885#4 28813885#5 27052071#0 27052069#1"/>
   </vehicle>

    <vehicle id="Rand77" depart="3" arrival="76">
        <route edges="27082629#0 27052067#4 27082604#0 27083324#0"/>
   </vehicle>

    <vehicle id="Rand19" depart="0" arrival="80">
        <route edges="27082616#5 27053106#2 27082600#0 27082600#1 27082600#2"/>
   </vehicle>

    <vehicle id="Rand100" depart="0" arrival="89">
        <route edges="27122600#0 27082629#0 27052067#4 27082604#0 27083324#0"/>
   </vehicle>

    <vehicle id="Rand52" depart="3" arrival="92">
        <route edges="27082624#4 27052067#3 27082629#1 27083324#1"/>
   </vehicle>

    <vehicle id="Rand89" depart="0" arrival="101">
        <route edges="28813885#4 27053170#1 27082600#1 27082600#2 27082600#3 27077992#3"/>
   </vehicle>

    <vehicle id="Rand120" depart="0" arrival="102">
        <route edges="27053170#3 27082617#1 27053782#1 27053782#2 27053782#3 27053782#4 27083324#0"/>
   </vehicle>

    <vehicle id="Rand61" depart="0" arrival="102">
        <route edges="-27082628#2 28813885#1 28813885#2 28813885#3 27053782#4 27083324#0 27083324#1 27083324#2 27083324#3"/>
   </vehicle>

    <vehicle id="Rand55" depart="0" arrival="102">
        <route edges="27056027#0 27056034#1 27083337#4 28629700#2 -28629700#2"/>
   </vehicle>

    <vehicle id="Rand71" depart="0" arrival="104">
        <route edges="28813885#3 27053782#4 27083324#0 27082629#2 27082629#3 27082629#4 27082629#5 27082625#0 27082625#1"/>
   </vehicle>

    <vehicle id="Rand22" depart="0" arrival="105">
        <route edges="27082625#2 27082624#1 27082624#2 27053790#3 27053790#4 27078417#0"/>
   </vehicle>

    <vehicle id="Rand6" depart="3" arrival="105">
        <route edges="27082625#2 27082624#1 27082624#2 27053790#3 27082629#3 27082629#4 27082629#5"/>
   </vehicle>

    <vehicle id="Rand79" depart="0" arrival="109">
        <route edges="27052069#1 27154183#3 27053106#3 27053106#4 -28629700#3 -28629700#2 27053171#0"/>
   </vehicle>

    <vehicle id="Rand28" depart="0" arrival="110">
        <route edges="27082624#4 27052067#3 27052067#4 27082604#0 27082604#1"/>
   </vehicle>

    <vehicle id="Rand23" depart="0" arrival="112">
        <route edges="27083324#0 27082629#2 27082629#3 27082629#4 27082628#0 27082628#1 27082628#2 27082628#3"/>
   </vehicle>

    <vehicle id="Rand105" depart="0" arrival="114">
        <route edges="28813885#5 27053106#4 -28629700#3 -28629700#2 -28629700#1 -28629700#0"/>
   </vehicle>

    <vehicle id="Rand43" depart="1" arrival="115">
        <route edges="-28629700#2 28629700#2 28629700#3 27122600#0 27122600#1"/>
   </vehicle>

    <vehicle id="Rand73" depart="3" arrival="117">
        <route edges="27053170#3 27082617#1 27082617#2 27082617#3 27077992#1 27077992#2 27077992#3 27077992#4"/>
   </vehicle>

    <vehicle id="Rand87" depart="0" arrival="117">
        <route edges="27052071#0 27052071#1 27052071#2 27639462#2 27056027#0 27056027#1 27056027#2 27056027#3"/>
   </vehicle>

    <vehicle id="Rand128" depart="0" arrival="118">
        <route edges="27082604#1 27078417#0 28813885#3 28813885#4 27053170#1 27053170#2 27053170#3 27082617#1 27053782#1"/>
   </vehicle>

    <vehicle id="Rand36" depart="0" arrival="119">
        <route edges="-28629700#2 28629700#2 28629700#3 27122600#0 27082629#0 27082629#1 27083324#1 27083324#2 27083324#3"/>
   </vehicle>

    <vehicle id="Rand5" depart="0" arrival="122">
        <route edges="-27082628#0 27082628#0 27082628#1 27082628#2 27082628#3 27082628#4"/>
   </vehicle>

    <vehicle id="Rand56" depart="0" arrival="122">
        <route edges="27082628#4 -27082628#4 27082616#1 27082616#2 27082616#3 27082616#4 27053170#3 27082617#1 27082617#2"/>
   </vehicle>

    <vehicle id="Rand34" depart="6" arrival="123">
        <route edges="27082616#1 27077992#2 27082600#4 -27082628#2 -27082628#1 -27082628#0 27082629#5"/>
   </vehicle>

    <vehicle id="Rand66" depart="0" arrival="130">
        <route edges="27082600#2 27082600#3 27077992#3 28813885#2 28813885#3 27053782#4 27083324#0 27082629#2 27053790#4"/>
   </vehicle>

    <vehicle id="Rand113" depart="3" arrival="130">
        <route edges="27122600#0 27082629#0 27082629#1 27083324#1 27083324#2 27053786#2 27053790#2"/>
   </vehicle>

    <vehicle id="Rand30" depart="0" arrival="131">
        <route edges="27494703#0 27056034#3 27082629#0 27052067#4 27082604#0"/>
   </vehicle>

    <vehicle id="Rand21" depart="0" arrival="138">
        <route edges="27052069#0 27052071#1 27052071#2 27639462#2 27056027#0 27056027#1 27056027#2 27056036#1 27056036#2"/>
   </vehicle>

    <vehicle id="Rand126" depart="0" arrival="138">
        <route edges="27053790#1 27053790#2 27053790#3 27053790#4 27078417#0 27078417#1 27078417#2 27078417#3"/>
   </vehicle>

    <vehicle id="Rand49" depart="0" arrival="139">
        <route edges="27082628#0 -27082628#0 27082629#5 27082625#0 27082625#1 27082625#2 27082624#1 27053791#3 27053791#4 27053791#5"/>
   </vehicle>

    <vehicle id="Rand46" depart="0" arrival="145">
        <route edges="-28629700#1 28629700#1 27053171#0 27053171#1 27154183#2 27154183#3 27082600#0 27053170#2 27053170#3 27053170#4"/>
   </vehicle>

    <vehicle id="Rand60" depart="3" arrival="150">
        <route edges="27052071#1 27053171#1 27154183#2 27154183#3 27082600#0 27082600#1 27053782#3 27053782#4 27083324#0"/>
   </vehicle>

    <vehicle id="Rand10" depart="0" arrival="153">
        <route edges="27055797#1 27639462#0 27154183#1 27154183#2 27154183#3 27082600#0 27082600#1 27082600#2 27082600#3 27077992#3"/>
   </vehicle>

    <vehicle id="Rand112" depart="0" arrival="158">
        <route edges="27083337#3 27056034#2 27056034#3 27082629#0 27052067#4 27053170#0 28813885#5"/>
   </vehicle>

    <vehicle id="Rand13" depart="3" arrival="164">
        <route edges="27082616#1 27077992#2 27077992#3 28813885#2 28813885#3 28813885#4 28813885#5 27052071#0 27052069#1 27154183#3"/>
   </vehicle>

    <vehicle id="Rand129" depart="0" arrival="173">
        <route edges="27053791#1 27053791#2 27082624#2 27053790#3 27053790#4 27078417#0 28813885#3 28813885#4 28813885#5 27052071#0 27052069#1 27154183#3"/>
   </vehicle>

    <vehicle id="Rand117" depart="0" arrival="173">
        <route edges="27053106#0 27053106#1 27053106#2 27082600#0 27053170#2"/>
   </vehicle>

    <vehicle id="Rand7" depart="0" arrival="175">
        <route edges="27053790#0 27053790#1 27053790#2 27053790#3 27082629#3 27082629#4 27082629#5 27082625#0 27082625#1"/>
   </vehicle>

    <vehicle id="Rand125" depart="0" arrival="178">
        <route edges="-27082628#5 -27082628#4 -27082628#3 -27082628#2 28813885#1 28813885#2 28813885#3 27053782#4 27082604#1 27082604#2"/>
   </vehicle>

    <vehicle id="Rand54" depart="0" arrival="191">
        <route edges="27053782#1 27053782#2 27053782#3 27053782#4 27083324#0 27082629#2 27082629#3 27082629#4 27082629#5 27082625#0 27082625#1 27082625#2"/>
   </vehicle>

    <vehicle id="Rand45" depart="0" arrival="192">
        <route edges="27082617#4 -27082628#4 -27082628#3 -27082628#2 -27082628#1 -27082628#0 27082629#5 27082625#0 27082625#1 27082625#2 27082624#1 27082624#2 27082624#3"/>
   </vehicle>

    <vehicle id="Rand110" depart="0" arrival="192">
        <route edges="27082624#3 27082624#4 27052067#3 27082629#1 27082629#2 27082629#3 27082629#4 27082629#5 27082625#0 27082625#1 27082625#2 27082625#3"/>
   </vehicle>

    <vehicle id="Rand53" depart="6" arrival="192">
        <route edges="27122600#0 27122600#1 27056035#0 27056035#1 27083337#2 27083337#3 27083337#4 28629700#2 28629700#3"/>
   </vehicle>

    <vehicle id="Rand123" depart="0" arrival="200">
        <route edges="27053791#4 28408742#1 27053790#1 27053790#2 27053790#3 27053790#4 27078417#0 27078417#1 27078417#2 27082616#3 27053782#2"/>
   </vehicle>

    <vehicle id="Rand84" depart="6" arrival="206">
        <route edges="27055797#0 27055797#1 27639462#0 27639462#1 27639462#2 28629700#1 28629700#2 27052069#0"/>
   </vehicle>

    <vehicle id="Rand102" depart="0" arrival="210">
        <route edges="27053790#3 27053790#4 27078417#0 28813885#3 28813885#4 28813885#5 27053106#4 -28629700#3 -28629700#2 -28629700#1 -28629700#0"/>
   </vehicle>

    <vehicle id="Rand48" depart="0" arrival="210">
        <route edges="28629700#2 28629700#3 27122600#0 27082629#0 27082629#1 27082629#2 27082629#3 27082629#4 27082628#0 27082628#1 27082628#2 27082628#3"/>
   </vehicle>

    <vehicle id="Rand58" depart="3" arrival="213">
        <route edges="27053106#0 27053106#1 27053106#2 27053106#3 27053106#4 -28629700#3 -28629700#2 -28629700#1 -28629700#0"/>
   </vehicle>

    <vehicle id="Rand96" depart="3" arrival="215">
        <route edges="27053791#4 28408742#1 27053790#1 27053790#2 27053790#3 27053790#4 27078417#0 27078417#1 27078417#2 27078417#3 27082617#3 27082617#4"/>
   </vehicle>

    <vehicle id="Rand1" depart="0" arrival="215">
        <route edges="27056034#3 27082629#0 27082629#1 27082629#2 27082629#3 27082629#4 27082628#0 27082628#1 28813885#1 28813885#2"/>
   </vehicle>

    <vehicle id="Rand9" depart="0" arrival="215">
        <route edges="27077992#2 27077992#3 28813885#2 28813885#3 28813885#4 28813885#5 27053106#4 -28629700#3 -28629700#2 -28629700#1 27056027#0"/>
   </vehicle>

    <vehicle id="Rand51" depart="3" arrival="216">
        <route edges="28629700#0 28629700#1 28629700#2 28629700#3 27122600#0 27082629#0 27082629#1"/>
   </vehicle>

    <vehicle id="Rand40" depart="6" arrival="216">
        <route edges="27053791#1 27053791#2 27082624#2 27053790#3 27053790#4 27078417#0 28813885#3 28813885#4 28813885#5 27053106#4 27122600#0"/>
   </vehicle>

    <vehicle id="Rand98" depart="3" arrival="222">
        <route edges="-27494703#1 27056034#3 27082629#0 27082629#1 27082629#2 27053790#4 27078417#0 28813885#3"/>
   </vehicle>

    <vehicle id="Rand86" depart="3" arrival="225">
        <route edges="27082617#4 -27082628#4 -27082628#3 -27082628#2 28813885#1 28813885#2 28813885#3 28813885#4 28813885#5 27052071#0 27052069#1"/>
   </vehicle>

    <vehicle id="Rand92" depart="0" arrival="229">
        <route edges="27083337#0 27083337#1"/>
   </vehicle>

    <vehicle id="Rand103" depart="0" arrival="229">
        <route edges="-27494703#1 27056034#3 27082629#0 27082629#1 27082629#2 27082629#3 27053791#1"/>
   </vehicle>

    <vehicle id="Rand72" depart="0" arrival="230">
        <route edges="27082629#2 27082629#3 27053791#1 27053791#2 27082624#2 27082624#3 27082624#4 27052067#3 27052067#4"/>
   </vehicle>

    <vehicle id="Rand91" depart="3" arrival="234">
        <route edges="27053790#0 27053790#1 27053790#2 27053790#3 27053790#4 27078417#0 28813885#3 28813885#4 28813885#5 27052071#0 27052071#1"/>
   </vehicle>

    <vehicle id="Rand68" depart="0" arrival="242">
        <route edges="27052067#3 27052067#4 27053170#0 28813885#5 27053106#4 -28629700#3 -27494703#1 -27494703#0"/>
   </vehicle>

    <vehicle id="Rand85" depart="0" arrival="242">
        <route edges="27122600#2 27053786#0 27052067#2 27052067#3 27052067#4 27053170#0 28813885#5 27052071#0 27052069#1 27154183#3 27053106#3"/>
   </vehicle>

    <vehicle id="Rand75" depart="0" arrival="244">
        <route edges="27082629#0 27052067#4 27053170#0 28813885#5 27053106#4 -28629700#3 -27494703#1 27494703#1"/>
   </vehicle>

    <vehicle id="Rand81" depart="0" arrival="246">
        <route edges="27082617#3 27077992#1 27077992#2 27077992#3 28813885#2 28813885#3 28813885#4 28813885#5 27053106#4 -28629700#3 -27494703#1 27494703#1"/>
   </vehicle>

    <vehicle id="Rand90" depart="0" arrival="246">
        <route edges="28408742#2 28408742#3 27052067#1 27052067#2 27052067#3 27052067#4 27053170#0 28813885#5 27052071#0 27052069#1 27154183#3 27053106#3"/>
   </vehicle>

    <vehicle id="Rand124" depart="0" arrival="249">
        <route edges="27056035#0 27056035#1 27083337#2 27083337#3 27083337#4 -28629700#1 -28629700#0 28629700#0"/>
   </vehicle>

    <vehicle id="Rand39" depart="0" arrival="249">
        <route edges="27494703#1 28629700#3 27122600#0 27082629#0 27082629#1 27082629#2 27082629#3 27082629#4 27082628#0"/>
   </vehicle>

    <vehicle id="Rand59" depart="0" arrival="250">
        <route edges="27077992#4 27082604#3 27082628#1 28813885#1 28813885#2 28813885#3 28813885#4 28813885#5 27053106#4 -28629700#3 -27494703#1 27056034#3"/>
   </vehicle>

    <vehicle id="Rand62" depart="0" arrival="252">
        <route edges="27486761 27053791#2 27082624#2 27053790#3 27053790#4 27078417#0 28813885#3 28813885#4 27053170#1 27053170#2 27082616#5 27053106#2"/>
   </vehicle>

    <vehicle id="Rand127" depart="0" arrival="263">
        <route edges="-28629700#0 28629700#0 28629700#1 28629700#2 28629700#3 27122600#0 27082629#0 27082629#1 27083324#1 27082624#4"/>
   </vehicle>

    <vehicle id="Rand119" depart="0" arrival="263">
        <route edges="27053106#2 27053106#3 27053106#4 27122600#0 27082629#0 27082629#1 27082629#2 27082629#3 27053791#1 27053791#2 27053791#3 27053791#4 27053791#5"/>
   </vehicle>

    <vehicle id="Rand78" depart="0" arrival="264">
        <route edges="27154183#2 27154183#3 27053106#3 27053106#4 27122600#0 27082629#0 27082629#1 27082629#2 27082629#3 27082629#4 27082629#5 27082629#6 27082629#7"/>
   </vehicle>

    <vehicle id="Rand12" depart="0" arrival="271">
        <route edges="27639462#0 27639462#1 27639462#2 28629700#1 28629700#2 28629700#3 27122600#0 27122600#1 27056035#0 27056035#1 27083337#2"/>
   </vehicle>

    <vehicle id="Rand76" depart="0" arrival="276">
        <route edges="27082624#1 27082624#2 27053790#3 27053790#4 27078417#0 28813885#3 28813885#4 28813885#5 27052071#0 27052071#1 27053171#1 27053171#2 27055797#1 27639462#0"/>
   </vehicle>

    <vehicle id="Rand74" depart="0" arrival="280">
        <route edges="27053791#0 27053791#1 27053791#2 27082624#2 27082624#3 27082624#4 27082624#5 27056035#0 27056035#1 27083337#2 -27639510 27639510"/>
   </vehicle>

    <vehicle id="Rand38" depart="0" arrival="283">
        <route edges="27083337#2 27083337#3 27056034#2 27056034#3 27082629#0 27082629#1 27082629#2 27082629#3 27082629#4 27082629#5 27082625#0 27082625#1 27082625#2 27082625#3 27053786#5"/>
   </vehicle>

    <vehicle id="Rand3" depart="0" arrival="284">
        <route edges="28813885#0 28813885#1 28813885#2 28813885#3 28813885#4 28813885#5 27053106#4 27122600#0 27122600#1 27122600#2 27122600#3 27122600#4"/>
   </vehicle>

    <vehicle id="Rand101" depart="0" arrival="285">
        <route edges="27082616#0 -27082628#3 -27082628#2 28813885#1 28813885#2 28813885#3 28813885#4 28813885#5 27053106#4 27122600#0 27122600#1 27056035#0 27056035#1 27083337#2 -27639510 27639510"/>
   </vehicle>

    <vehicle id="Rand18" depart="3" arrival="296">
        <route edges="27053790#1 27053790#2 27053790#3 27053790#4 27078417#0 28813885#3 28813885#4 28813885#5 27052071#0 27052071#1 27053171#1 27053171#2 27055797#1 27639462#0 27639462#1"/>
   </vehicle>

    <vehicle id="Rand8" depart="0" arrival="301">
        <route edges="-27494703#0 27494703#0 27056034#3 27082629#0 27082629#1 27082629#2 27082629#3 27082629#4 27082628#0 27082628#1 -27082628#1"/>
   </vehicle>

    <vehicle id="Rand88" depart="0" arrival="309">
        <route edges="27082624#5 27122600#2 27053786#0 27052067#2 27052067#3 27082629#1 27082629#2 27082629#3 27082629#4 27082628#0 27082628#1 -27082628#1"/>
   </vehicle>

    <vehicle id="Rand35" depart="3" arrival="316">
        <route edges="27082616#5 27053106#2 27053106#3 27053106#4 27122600#0 27082629#0 27082629#1 27083324#1 27083324#2 27053786#2 27053790#2"/>
   </vehicle>

    <vehicle id="Rand33" depart="3" arrival="319">
        <route edges="27052069#0 27052069#1 27154183#3 27053106#3 27053106#4 27122600#0 27082629#0 27082629#1 27083324#1 27083324#2 27053786#2 27053790#2"/>
   </vehicle>

    <vehicle id="Rand26" depart="0" arrival="328">
        <route edges="27082629#5 27082625#0 27082625#1 27082625#2 27082624#1 27082624#2 27053790#3 27053790#4 27078417#0 28813885#3 28813885#4 28813885#5 27053106#4 -28629700#3 -28629700#2 -28629700#1 27056027#0 27056027#1"/>
   </vehicle>

    <vehicle id="Rand16" depart="0" arrival="329">
        <route edges="27052071#2 27639462#2 28629700#1 28629700#2 28629700#3 27122600#0 27082629#0 27082629#1 27082629#2 27082629#3 27082629#4 27082628#0"/>
   </vehicle>

    <vehicle id="Rand44" depart="0" arrival="336">
        <route edges="27052071#1 27052071#2 27639462#2 28629700#1 28629700#2 28629700#3 27122600#0 27082629#0 27082629#1 27082629#2 27082629#3 27082629#4 27082629#5 27082629#6"/>
   </vehicle>

    <vehicle id="Rand37" depart="0" arrival="338">
        <route edges="27056027#1 27056027#2 27056036#1 27083337#1 27083337#2 27083337#3 27056034#2 27056034#3 27082629#0 27082629#1 27082629#2 27082629#3 27082629#4 27082629#5 27082625#0 27486763#1"/>
   </vehicle>

    <vehicle id="Rand111" depart="0" arrival="366">
        <route edges="28629700#0 28629700#1 28629700#2 28629700#3 27122600#0 27082629#0 27082629#1 27082629#2 27053790#4 27078417#0 27078417#1 27078417#2 27078417#3 27082617#3 27082617#4"/>
   </vehicle>

    <vehicle id="Rand109" depart="0" arrival="375">
        <route edges="27077992#0 27082617#4 -27082628#4 -27082628#3 -27082628#2 -27082628#1 -27082628#0 27082629#5 27082629#6 27082629#7"/>
   </vehicle>

    <vehicle id="Rand41" depart="0" arrival="456">
        <route edges="27055797#0 27055797#1 27639462#0 27639462#1 27639462#2 28629700#1 28629700#2 28629700#3 27122600#0 27082629#0 27082629#1 27082629#2 27082629#3 27053791#1 27053791#2 27053791#3 27053786#4"/>
   </vehicle>

    <vehicle id="Rand17" depart="0" arrival="466">
        <route edges="27056027#2 27056036#1 27083337#1 27083337#2 27083337#3 27056034#2 27056034#3 27082629#0 27082629#1 27082629#2 27082629#3 27082629#4 27082628#0 27082628#1 27082628#2 27082628#3 27082628#4 27082628#5 -27082628#5"/>
   </vehicle>

</routes>
