<?xml version="1.0"?>

<!-- generated on Thu Jun 10 15:11:08 2010 by SUMO sumo Version 0.11.1
<configuration>

    <input>
        <net-file value="bahia-rivadavia/20/rivadavia.net.xml"/>
        <route-files value="bahia-rivadavia/20/rivadavia.100.rou.xml"/>
        <additional-files value="bahia-rivadavia/20/tl-logic.add.xml"/>
    </input>

    <output>
        <emissions-output value="bahia-rivadavia/20/output-emissions.xml"/>
        <tripinfo-output value="bahia-rivadavia/20/output-tripinfos.xml"/>
        <vehroute-output value="bahia-rivadavia/20/output-vehroutes.xml"/>
    </output>

    <time>
        <begin value="0"/>
        <end value="500"/>
    </time>

    <processing>
        <route-steps value="-1"/>
        <time-to-teleport value="-1"/>
    </processing>

    <report>
        <print-options value="false"/>
        <suppress-warnings value="true"/>
    </report>

    <random_number>
        <srand value="23423"/>
    </random_number>

    <gui_only>
        <gui-settings-file value=""/>
    </gui_only>

</configuration>
-->

<emissions>
    <emission-state time="0" loaded="100" emitted="76" running="76" waiting="24" ended="0" meanWaitingTime="0.00" meanTravelTime="-1.00" duration="0" />
    <emission-state time="1" loaded="100" emitted="77" running="76" waiting="23" ended="1" meanWaitingTime="0.01" meanTravelTime="1.00" duration="1" />
    <emission-state time="2" loaded="100" emitted="77" running="76" waiting="23" ended="1" meanWaitingTime="0.01" meanTravelTime="1.00" duration="1" />
    <emission-state time="3" loaded="100" emitted="96" running="95" waiting="4" ended="1" meanWaitingTime="0.60" meanTravelTime="1.00" duration="0" />
    <emission-state time="4" loaded="100" emitted="96" running="95" waiting="4" ended="1" meanWaitingTime="0.60" meanTravelTime="1.00" duration="1" />
    <emission-state time="5" loaded="100" emitted="96" running="95" waiting="4" ended="1" meanWaitingTime="0.60" meanTravelTime="1.00" duration="0" />
    <emission-state time="6" loaded="100" emitted="100" running="99" waiting="0" ended="1" meanWaitingTime="0.82" meanTravelTime="1.00" duration="0" />
    <emission-state time="7" loaded="100" emitted="100" running="99" waiting="0" ended="1" meanWaitingTime="0.82" meanTravelTime="1.00" duration="1" />
    <emission-state time="8" loaded="100" emitted="100" running="99" waiting="0" ended="1" meanWaitingTime="0.82" meanTravelTime="1.00" duration="0" />
    <emission-state time="9" loaded="100" emitted="100" running="99" waiting="0" ended="1" meanWaitingTime="0.82" meanTravelTime="1.00" duration="0" />
    <emission-state time="10" loaded="100" emitted="100" running="99" waiting="0" ended="1" meanWaitingTime="0.82" meanTravelTime="1.00" duration="0" />
    <emission-state time="11" loaded="100" emitted="100" running="99" waiting="0" ended="1" meanWaitingTime="0.82" meanTravelTime="1.00" duration="1" />
    <emission-state time="12" loaded="100" emitted="100" running="99" waiting="0" ended="1" meanWaitingTime="0.82" meanTravelTime="1.00" duration="0" />
    <emission-state time="13" loaded="100" emitted="100" running="99" waiting="0" ended="1" meanWaitingTime="0.82" meanTravelTime="1.00" duration="0" />
    <emission-state time="14" loaded="100" emitted="100" running="99" waiting="0" ended="1" meanWaitingTime="0.82" meanTravelTime="1.00" duration="1" />
    <emission-state time="15" loaded="100" emitted="100" running="99" waiting="0" ended="1" meanWaitingTime="0.82" meanTravelTime="1.00" duration="0" />
    <emission-state time="16" loaded="100" emitted="100" running="99" waiting="0" ended="1" meanWaitingTime="0.82" meanTravelTime="1.00" duration="0" />
    <emission-state time="17" loaded="100" emitted="100" running="99" waiting="0" ended="1" meanWaitingTime="0.82" meanTravelTime="1.00" duration="0" />
    <emission-state time="18" loaded="100" emitted="100" running="99" waiting="0" ended="1" meanWaitingTime="0.82" meanTravelTime="1.00" duration="1" />
    <emission-state time="19" loaded="100" emitted="100" running="99" waiting="0" ended="1" meanWaitingTime="0.82" meanTravelTime="1.00" duration="0" />
    <emission-state time="20" loaded="100" emitted="100" running="99" waiting="0" ended="1" meanWaitingTime="0.82" meanTravelTime="1.00" duration="1" />
    <emission-state time="21" loaded="100" emitted="100" running="99" waiting="0" ended="1" meanWaitingTime="0.82" meanTravelTime="1.00" duration="0" />
    <emission-state time="22" loaded="100" emitted="100" running="99" waiting="0" ended="1" meanWaitingTime="0.82" meanTravelTime="1.00" duration="0" />
    <emission-state time="23" loaded="100" emitted="100" running="99" waiting="0" ended="1" meanWaitingTime="0.82" meanTravelTime="1.00" duration="1" />
    <emission-state time="24" loaded="100" emitted="100" running="99" waiting="0" ended="1" meanWaitingTime="0.82" meanTravelTime="1.00" duration="0" />
    <emission-state time="25" loaded="100" emitted="100" running="99" waiting="0" ended="1" meanWaitingTime="0.82" meanTravelTime="1.00" duration="0" />
    <emission-state time="26" loaded="100" emitted="100" running="99" waiting="0" ended="1" meanWaitingTime="0.82" meanTravelTime="1.00" duration="1" />
    <emission-state time="27" loaded="100" emitted="100" running="99" waiting="0" ended="1" meanWaitingTime="0.82" meanTravelTime="1.00" duration="0" />
    <emission-state time="28" loaded="100" emitted="100" running="99" waiting="0" ended="1" meanWaitingTime="0.82" meanTravelTime="1.00" duration="0" />
    <emission-state time="29" loaded="100" emitted="100" running="99" waiting="0" ended="1" meanWaitingTime="0.82" meanTravelTime="1.00" duration="0" />
    <emission-state time="30" loaded="100" emitted="100" running="99" waiting="0" ended="1" meanWaitingTime="0.82" meanTravelTime="1.00" duration="1" />
    <emission-state time="31" loaded="100" emitted="100" running="99" waiting="0" ended="1" meanWaitingTime="0.82" meanTravelTime="1.00" duration="0" />
    <emission-state time="32" loaded="100" emitted="100" running="99" waiting="0" ended="1" meanWaitingTime="0.82" meanTravelTime="1.00" duration="0" />
    <emission-state time="33" loaded="100" emitted="100" running="99" waiting="0" ended="1" meanWaitingTime="0.82" meanTravelTime="1.00" duration="1" />
    <emission-state time="34" loaded="100" emitted="100" running="99" waiting="0" ended="1" meanWaitingTime="0.82" meanTravelTime="1.00" duration="0" />
    <emission-state time="35" loaded="100" emitted="100" running="99" waiting="0" ended="1" meanWaitingTime="0.82" meanTravelTime="1.00" duration="0" />
    <emission-state time="36" loaded="100" emitted="100" running="99" waiting="0" ended="1" meanWaitingTime="0.82" meanTravelTime="1.00" duration="0" />
    <emission-state time="37" loaded="100" emitted="100" running="99" waiting="0" ended="1" meanWaitingTime="0.82" meanTravelTime="1.00" duration="1" />
    <emission-state time="38" loaded="100" emitted="100" running="99" waiting="0" ended="1" meanWaitingTime="0.82" meanTravelTime="1.00" duration="0" />
    <emission-state time="39" loaded="100" emitted="100" running="99" waiting="0" ended="1" meanWaitingTime="0.82" meanTravelTime="1.00" duration="0" />
    <emission-state time="40" loaded="100" emitted="100" running="99" waiting="0" ended="1" meanWaitingTime="0.82" meanTravelTime="1.00" duration="1" />
    <emission-state time="41" loaded="100" emitted="100" running="99" waiting="0" ended="1" meanWaitingTime="0.82" meanTravelTime="1.00" duration="0" />
    <emission-state time="42" loaded="100" emitted="100" running="99" waiting="0" ended="1" meanWaitingTime="0.82" meanTravelTime="1.00" duration="0" />
    <emission-state time="43" loaded="100" emitted="100" running="99" waiting="0" ended="1" meanWaitingTime="0.82" meanTravelTime="1.00" duration="1" />
    <emission-state time="44" loaded="100" emitted="100" running="99" waiting="0" ended="1" meanWaitingTime="0.82" meanTravelTime="1.00" duration="0" />
    <emission-state time="45" loaded="100" emitted="100" running="99" waiting="0" ended="1" meanWaitingTime="0.82" meanTravelTime="1.00" duration="0" />
    <emission-state time="46" loaded="100" emitted="100" running="99" waiting="0" ended="1" meanWaitingTime="0.82" meanTravelTime="1.00" duration="1" />
    <emission-state time="47" loaded="100" emitted="100" running="98" waiting="0" ended="2" meanWaitingTime="0.82" meanTravelTime="24.00" duration="0" />
    <emission-state time="48" loaded="100" emitted="100" running="98" waiting="0" ended="2" meanWaitingTime="0.82" meanTravelTime="24.00" duration="0" />
    <emission-state time="49" loaded="100" emitted="100" running="98" waiting="0" ended="2" meanWaitingTime="0.82" meanTravelTime="24.00" duration="0" />
    <emission-state time="50" loaded="100" emitted="100" running="98" waiting="0" ended="2" meanWaitingTime="0.82" meanTravelTime="24.00" duration="1" />
    <emission-state time="51" loaded="100" emitted="100" running="97" waiting="0" ended="3" meanWaitingTime="0.82" meanTravelTime="33.00" duration="0" />
    <emission-state time="52" loaded="100" emitted="100" running="97" waiting="0" ended="3" meanWaitingTime="0.82" meanTravelTime="33.00" duration="0" />
    <emission-state time="53" loaded="100" emitted="100" running="97" waiting="0" ended="3" meanWaitingTime="0.82" meanTravelTime="33.00" duration="1" />
    <emission-state time="54" loaded="100" emitted="100" running="97" waiting="0" ended="3" meanWaitingTime="0.82" meanTravelTime="33.00" duration="0" />
    <emission-state time="55" loaded="100" emitted="100" running="97" waiting="0" ended="3" meanWaitingTime="0.82" meanTravelTime="33.00" duration="0" />
    <emission-state time="56" loaded="100" emitted="100" running="96" waiting="0" ended="4" meanWaitingTime="0.82" meanTravelTime="38.00" duration="1" />
    <emission-state time="57" loaded="100" emitted="100" running="96" waiting="0" ended="4" meanWaitingTime="0.82" meanTravelTime="38.00" duration="0" />
    <emission-state time="58" loaded="100" emitted="100" running="96" waiting="0" ended="4" meanWaitingTime="0.82" meanTravelTime="38.00" duration="0" />
    <emission-state time="59" loaded="100" emitted="100" running="96" waiting="0" ended="4" meanWaitingTime="0.82" meanTravelTime="38.00" duration="0" />
    <emission-state time="60" loaded="100" emitted="100" running="96" waiting="0" ended="4" meanWaitingTime="0.82" meanTravelTime="38.00" duration="1" />
    <emission-state time="61" loaded="100" emitted="100" running="96" waiting="0" ended="4" meanWaitingTime="0.82" meanTravelTime="38.00" duration="0" />
    <emission-state time="62" loaded="100" emitted="100" running="95" waiting="0" ended="5" meanWaitingTime="0.82" meanTravelTime="42.80" duration="0" />
    <emission-state time="63" loaded="100" emitted="100" running="95" waiting="0" ended="5" meanWaitingTime="0.82" meanTravelTime="42.80" duration="1" />
    <emission-state time="64" loaded="100" emitted="100" running="95" waiting="0" ended="5" meanWaitingTime="0.82" meanTravelTime="42.80" duration="0" />
    <emission-state time="65" loaded="100" emitted="100" running="95" waiting="0" ended="5" meanWaitingTime="0.82" meanTravelTime="42.80" duration="0" />
    <emission-state time="66" loaded="100" emitted="100" running="95" waiting="0" ended="5" meanWaitingTime="0.82" meanTravelTime="42.80" duration="1" />
    <emission-state time="67" loaded="100" emitted="100" running="95" waiting="0" ended="5" meanWaitingTime="0.82" meanTravelTime="42.80" duration="0" />
    <emission-state time="68" loaded="100" emitted="100" running="94" waiting="0" ended="6" meanWaitingTime="0.82" meanTravelTime="46.50" duration="0" />
    <emission-state time="69" loaded="100" emitted="100" running="94" waiting="0" ended="6" meanWaitingTime="0.82" meanTravelTime="46.50" duration="0" />
    <emission-state time="70" loaded="100" emitted="100" running="94" waiting="0" ended="6" meanWaitingTime="0.82" meanTravelTime="46.50" duration="1" />
    <emission-state time="71" loaded="100" emitted="100" running="93" waiting="0" ended="7" meanWaitingTime="0.82" meanTravelTime="50.00" duration="0" />
    <emission-state time="72" loaded="100" emitted="100" running="91" waiting="0" ended="9" meanWaitingTime="0.82" meanTravelTime="54.89" duration="0" />
    <emission-state time="73" loaded="100" emitted="100" running="91" waiting="0" ended="9" meanWaitingTime="0.82" meanTravelTime="54.89" duration="1" />
    <emission-state time="74" loaded="100" emitted="100" running="90" waiting="0" ended="10" meanWaitingTime="0.82" meanTravelTime="56.80" duration="0" />
    <emission-state time="75" loaded="100" emitted="100" running="89" waiting="0" ended="11" meanWaitingTime="0.82" meanTravelTime="58.18" duration="0" />
    <emission-state time="76" loaded="100" emitted="100" running="89" waiting="0" ended="11" meanWaitingTime="0.82" meanTravelTime="58.18" duration="0" />
    <emission-state time="77" loaded="100" emitted="100" running="89" waiting="0" ended="11" meanWaitingTime="0.82" meanTravelTime="58.18" duration="1" />
    <emission-state time="78" loaded="100" emitted="100" running="89" waiting="0" ended="11" meanWaitingTime="0.82" meanTravelTime="58.18" duration="0" />
    <emission-state time="79" loaded="100" emitted="100" running="89" waiting="0" ended="11" meanWaitingTime="0.82" meanTravelTime="58.18" duration="0" />
    <emission-state time="80" loaded="100" emitted="100" running="88" waiting="0" ended="12" meanWaitingTime="0.82" meanTravelTime="60.00" duration="1" />
    <emission-state time="81" loaded="100" emitted="100" running="88" waiting="0" ended="12" meanWaitingTime="0.82" meanTravelTime="60.00" duration="0" />
    <emission-state time="82" loaded="100" emitted="100" running="88" waiting="0" ended="12" meanWaitingTime="0.82" meanTravelTime="60.00" duration="0" />
    <emission-state time="83" loaded="100" emitted="100" running="88" waiting="0" ended="12" meanWaitingTime="0.82" meanTravelTime="60.00" duration="0" />
    <emission-state time="84" loaded="100" emitted="100" running="88" waiting="0" ended="12" meanWaitingTime="0.82" meanTravelTime="60.00" duration="1" />
    <emission-state time="85" loaded="100" emitted="100" running="88" waiting="0" ended="12" meanWaitingTime="0.82" meanTravelTime="60.00" duration="0" />
    <emission-state time="86" loaded="100" emitted="100" running="88" waiting="0" ended="12" meanWaitingTime="0.82" meanTravelTime="60.00" duration="0" />
    <emission-state time="87" loaded="100" emitted="100" running="88" waiting="0" ended="12" meanWaitingTime="0.82" meanTravelTime="60.00" duration="1" />
    <emission-state time="88" loaded="100" emitted="100" running="88" waiting="0" ended="12" meanWaitingTime="0.82" meanTravelTime="60.00" duration="0" />
    <emission-state time="89" loaded="100" emitted="100" running="87" waiting="0" ended="13" meanWaitingTime="0.82" meanTravelTime="62.23" duration="0" />
    <emission-state time="90" loaded="100" emitted="100" running="87" waiting="0" ended="13" meanWaitingTime="0.82" meanTravelTime="62.23" duration="0" />
    <emission-state time="91" loaded="100" emitted="100" running="86" waiting="0" ended="14" meanWaitingTime="0.82" meanTravelTime="64.07" duration="1" />
    <emission-state time="92" loaded="100" emitted="100" running="86" waiting="0" ended="14" meanWaitingTime="0.82" meanTravelTime="64.07" duration="0" />
    <emission-state time="93" loaded="100" emitted="100" running="86" waiting="0" ended="14" meanWaitingTime="0.82" meanTravelTime="64.07" duration="0" />
    <emission-state time="94" loaded="100" emitted="100" running="86" waiting="0" ended="14" meanWaitingTime="0.82" meanTravelTime="64.07" duration="0" />
    <emission-state time="95" loaded="100" emitted="100" running="86" waiting="0" ended="14" meanWaitingTime="0.82" meanTravelTime="64.07" duration="1" />
    <emission-state time="96" loaded="100" emitted="100" running="86" waiting="0" ended="14" meanWaitingTime="0.82" meanTravelTime="64.07" duration="0" />
    <emission-state time="97" loaded="100" emitted="100" running="86" waiting="0" ended="14" meanWaitingTime="0.82" meanTravelTime="64.07" duration="0" />
    <emission-state time="98" loaded="100" emitted="100" running="86" waiting="0" ended="14" meanWaitingTime="0.82" meanTravelTime="64.07" duration="1" />
    <emission-state time="99" loaded="100" emitted="100" running="85" waiting="0" ended="15" meanWaitingTime="0.82" meanTravelTime="66.40" duration="0" />
    <emission-state time="100" loaded="100" emitted="100" running="85" waiting="0" ended="15" meanWaitingTime="0.82" meanTravelTime="66.40" duration="0" />
    <emission-state time="101" loaded="100" emitted="100" running="84" waiting="0" ended="16" meanWaitingTime="0.82" meanTravelTime="68.56" duration="0" />
    <emission-state time="102" loaded="100" emitted="100" running="80" waiting="0" ended="20" meanWaitingTime="0.82" meanTravelTime="75.10" duration="1" />
    <emission-state time="103" loaded="100" emitted="100" running="79" waiting="0" ended="21" meanWaitingTime="0.82" meanTravelTime="76.43" duration="0" />
    <emission-state time="104" loaded="100" emitted="100" running="79" waiting="0" ended="21" meanWaitingTime="0.82" meanTravelTime="76.43" duration="0" />
    <emission-state time="105" loaded="100" emitted="100" running="79" waiting="0" ended="21" meanWaitingTime="0.82" meanTravelTime="76.43" duration="1" />
    <emission-state time="106" loaded="100" emitted="100" running="79" waiting="0" ended="21" meanWaitingTime="0.82" meanTravelTime="76.43" duration="0" />
    <emission-state time="107" loaded="100" emitted="100" running="79" waiting="0" ended="21" meanWaitingTime="0.82" meanTravelTime="76.43" duration="0" />
    <emission-state time="108" loaded="100" emitted="100" running="78" waiting="0" ended="22" meanWaitingTime="0.82" meanTravelTime="77.86" duration="0" />
    <emission-state time="109" loaded="100" emitted="100" running="78" waiting="0" ended="22" meanWaitingTime="0.82" meanTravelTime="77.86" duration="1" />
    <emission-state time="110" loaded="100" emitted="100" running="77" waiting="0" ended="23" meanWaitingTime="0.82" meanTravelTime="79.26" duration="0" />
    <emission-state time="111" loaded="100" emitted="100" running="77" waiting="0" ended="23" meanWaitingTime="0.82" meanTravelTime="79.26" duration="0" />
    <emission-state time="112" loaded="100" emitted="100" running="77" waiting="0" ended="23" meanWaitingTime="0.82" meanTravelTime="79.26" duration="0" />
    <emission-state time="113" loaded="100" emitted="100" running="77" waiting="0" ended="23" meanWaitingTime="0.82" meanTravelTime="79.26" duration="0" />
    <emission-state time="114" loaded="100" emitted="100" running="77" waiting="0" ended="23" meanWaitingTime="0.82" meanTravelTime="79.26" duration="0" />
    <emission-state time="115" loaded="100" emitted="100" running="77" waiting="0" ended="23" meanWaitingTime="0.82" meanTravelTime="79.26" duration="0" />
    <emission-state time="116" loaded="100" emitted="100" running="74" waiting="0" ended="26" meanWaitingTime="0.82" meanTravelTime="83.46" duration="1" />
    <emission-state time="117" loaded="100" emitted="100" running="74" waiting="0" ended="26" meanWaitingTime="0.82" meanTravelTime="83.46" duration="0" />
    <emission-state time="118" loaded="100" emitted="100" running="74" waiting="0" ended="26" meanWaitingTime="0.82" meanTravelTime="83.46" duration="0" />
    <emission-state time="119" loaded="100" emitted="100" running="72" waiting="0" ended="28" meanWaitingTime="0.82" meanTravelTime="86.00" duration="0" />
    <emission-state time="120" loaded="100" emitted="100" running="72" waiting="0" ended="28" meanWaitingTime="0.82" meanTravelTime="86.00" duration="1" />
    <emission-state time="121" loaded="100" emitted="100" running="72" waiting="0" ended="28" meanWaitingTime="0.82" meanTravelTime="86.00" duration="0" />
    <emission-state time="122" loaded="100" emitted="100" running="71" waiting="0" ended="29" meanWaitingTime="0.82" meanTravelTime="87.14" duration="0" />
    <emission-state time="123" loaded="100" emitted="100" running="69" waiting="0" ended="31" meanWaitingTime="0.82" meanTravelTime="89.26" duration="0" />
    <emission-state time="124" loaded="100" emitted="100" running="69" waiting="0" ended="31" meanWaitingTime="0.82" meanTravelTime="89.26" duration="1" />
    <emission-state time="125" loaded="100" emitted="100" running="68" waiting="0" ended="32" meanWaitingTime="0.82" meanTravelTime="90.38" duration="0" />
    <emission-state time="126" loaded="100" emitted="100" running="67" waiting="0" ended="33" meanWaitingTime="0.82" meanTravelTime="91.27" duration="0" />
    <emission-state time="127" loaded="100" emitted="100" running="67" waiting="0" ended="33" meanWaitingTime="0.82" meanTravelTime="91.27" duration="0" />
    <emission-state time="128" loaded="100" emitted="100" running="67" waiting="0" ended="33" meanWaitingTime="0.82" meanTravelTime="91.27" duration="1" />
    <emission-state time="129" loaded="100" emitted="100" running="67" waiting="0" ended="33" meanWaitingTime="0.82" meanTravelTime="91.27" duration="0" />
    <emission-state time="130" loaded="100" emitted="100" running="66" waiting="0" ended="34" meanWaitingTime="0.82" meanTravelTime="92.41" duration="0" />
    <emission-state time="131" loaded="100" emitted="100" running="65" waiting="0" ended="35" meanWaitingTime="0.82" meanTravelTime="93.51" duration="0" />
    <emission-state time="132" loaded="100" emitted="100" running="65" waiting="0" ended="35" meanWaitingTime="0.82" meanTravelTime="93.51" duration="0" />
    <emission-state time="133" loaded="100" emitted="100" running="64" waiting="0" ended="36" meanWaitingTime="0.82" meanTravelTime="94.53" duration="1" />
    <emission-state time="134" loaded="100" emitted="100" running="64" waiting="0" ended="36" meanWaitingTime="0.82" meanTravelTime="94.53" duration="0" />
    <emission-state time="135" loaded="100" emitted="100" running="64" waiting="0" ended="36" meanWaitingTime="0.82" meanTravelTime="94.53" duration="0" />
    <emission-state time="136" loaded="100" emitted="100" running="64" waiting="0" ended="36" meanWaitingTime="0.82" meanTravelTime="94.53" duration="0" />
    <emission-state time="137" loaded="100" emitted="100" running="64" waiting="0" ended="36" meanWaitingTime="0.82" meanTravelTime="94.53" duration="1" />
    <emission-state time="138" loaded="100" emitted="100" running="64" waiting="0" ended="36" meanWaitingTime="0.82" meanTravelTime="94.53" duration="0" />
    <emission-state time="139" loaded="100" emitted="100" running="64" waiting="0" ended="36" meanWaitingTime="0.82" meanTravelTime="94.53" duration="0" />
    <emission-state time="140" loaded="100" emitted="100" running="64" waiting="0" ended="36" meanWaitingTime="0.82" meanTravelTime="94.53" duration="0" />
    <emission-state time="141" loaded="100" emitted="100" running="64" waiting="0" ended="36" meanWaitingTime="0.82" meanTravelTime="94.53" duration="0" />
    <emission-state time="142" loaded="100" emitted="100" running="64" waiting="0" ended="36" meanWaitingTime="0.82" meanTravelTime="94.53" duration="0" />
    <emission-state time="143" loaded="100" emitted="100" running="64" waiting="0" ended="36" meanWaitingTime="0.82" meanTravelTime="94.53" duration="1" />
    <emission-state time="144" loaded="100" emitted="100" running="63" waiting="0" ended="37" meanWaitingTime="0.82" meanTravelTime="95.86" duration="0" />
    <emission-state time="145" loaded="100" emitted="100" running="61" waiting="0" ended="39" meanWaitingTime="0.82" meanTravelTime="98.38" duration="0" />
    <emission-state time="146" loaded="100" emitted="100" running="60" waiting="0" ended="40" meanWaitingTime="0.82" meanTravelTime="99.57" duration="0" />
    <emission-state time="147" loaded="100" emitted="100" running="60" waiting="0" ended="40" meanWaitingTime="0.82" meanTravelTime="99.57" duration="0" />
    <emission-state time="148" loaded="100" emitted="100" running="60" waiting="0" ended="40" meanWaitingTime="0.82" meanTravelTime="99.57" duration="0" />
    <emission-state time="149" loaded="100" emitted="100" running="60" waiting="0" ended="40" meanWaitingTime="0.82" meanTravelTime="99.57" duration="1" />
    <emission-state time="150" loaded="100" emitted="100" running="60" waiting="0" ended="40" meanWaitingTime="0.82" meanTravelTime="99.57" duration="0" />
    <emission-state time="151" loaded="100" emitted="100" running="60" waiting="0" ended="40" meanWaitingTime="0.82" meanTravelTime="99.57" duration="0" />
    <emission-state time="152" loaded="100" emitted="100" running="60" waiting="0" ended="40" meanWaitingTime="0.82" meanTravelTime="99.57" duration="0" />
    <emission-state time="153" loaded="100" emitted="100" running="58" waiting="0" ended="42" meanWaitingTime="0.82" meanTravelTime="101.90" duration="0" />
    <emission-state time="154" loaded="100" emitted="100" running="58" waiting="0" ended="42" meanWaitingTime="0.82" meanTravelTime="101.90" duration="0" />
    <emission-state time="155" loaded="100" emitted="100" running="58" waiting="0" ended="42" meanWaitingTime="0.82" meanTravelTime="101.90" duration="1" />
    <emission-state time="156" loaded="100" emitted="100" running="58" waiting="0" ended="42" meanWaitingTime="0.82" meanTravelTime="101.90" duration="0" />
    <emission-state time="157" loaded="100" emitted="100" running="58" waiting="0" ended="42" meanWaitingTime="0.82" meanTravelTime="101.90" duration="0" />
    <emission-state time="158" loaded="100" emitted="100" running="57" waiting="0" ended="43" meanWaitingTime="0.82" meanTravelTime="103.21" duration="0" />
    <emission-state time="159" loaded="100" emitted="100" running="57" waiting="0" ended="43" meanWaitingTime="0.82" meanTravelTime="103.21" duration="0" />
    <emission-state time="160" loaded="100" emitted="100" running="56" waiting="0" ended="44" meanWaitingTime="0.82" meanTravelTime="104.50" duration="0" />
    <emission-state time="161" loaded="100" emitted="100" running="56" waiting="0" ended="44" meanWaitingTime="0.82" meanTravelTime="104.50" duration="1" />
    <emission-state time="162" loaded="100" emitted="100" running="55" waiting="0" ended="45" meanWaitingTime="0.82" meanTravelTime="105.78" duration="0" />
    <emission-state time="163" loaded="100" emitted="100" running="54" waiting="0" ended="46" meanWaitingTime="0.82" meanTravelTime="107.02" duration="0" />
    <emission-state time="164" loaded="100" emitted="100" running="54" waiting="0" ended="46" meanWaitingTime="0.82" meanTravelTime="107.02" duration="0" />
    <emission-state time="165" loaded="100" emitted="100" running="53" waiting="0" ended="47" meanWaitingTime="0.82" meanTravelTime="108.19" duration="0" />
    <emission-state time="166" loaded="100" emitted="100" running="53" waiting="0" ended="47" meanWaitingTime="0.82" meanTravelTime="108.19" duration="0" />
    <emission-state time="167" loaded="100" emitted="100" running="53" waiting="0" ended="47" meanWaitingTime="0.82" meanTravelTime="108.19" duration="1" />
    <emission-state time="168" loaded="100" emitted="100" running="53" waiting="0" ended="47" meanWaitingTime="0.82" meanTravelTime="108.19" duration="0" />
    <emission-state time="169" loaded="100" emitted="100" running="52" waiting="0" ended="48" meanWaitingTime="0.82" meanTravelTime="109.46" duration="0" />
    <emission-state time="170" loaded="100" emitted="100" running="51" waiting="0" ended="49" meanWaitingTime="0.82" meanTravelTime="110.69" duration="0" />
    <emission-state time="171" loaded="100" emitted="100" running="51" waiting="0" ended="49" meanWaitingTime="0.82" meanTravelTime="110.69" duration="0" />
    <emission-state time="172" loaded="100" emitted="100" running="51" waiting="0" ended="49" meanWaitingTime="0.82" meanTravelTime="110.69" duration="0" />
    <emission-state time="173" loaded="100" emitted="100" running="50" waiting="0" ended="50" meanWaitingTime="0.82" meanTravelTime="111.94" duration="1" />
    <emission-state time="174" loaded="100" emitted="100" running="50" waiting="0" ended="50" meanWaitingTime="0.82" meanTravelTime="111.94" duration="0" />
    <emission-state time="175" loaded="100" emitted="100" running="49" waiting="0" ended="51" meanWaitingTime="0.82" meanTravelTime="113.18" duration="0" />
    <emission-state time="176" loaded="100" emitted="100" running="49" waiting="0" ended="51" meanWaitingTime="0.82" meanTravelTime="113.18" duration="0" />
    <emission-state time="177" loaded="100" emitted="100" running="49" waiting="0" ended="51" meanWaitingTime="0.82" meanTravelTime="113.18" duration="0" />
    <emission-state time="178" loaded="100" emitted="100" running="49" waiting="0" ended="51" meanWaitingTime="0.82" meanTravelTime="113.18" duration="0" />
    <emission-state time="179" loaded="100" emitted="100" running="49" waiting="0" ended="51" meanWaitingTime="0.82" meanTravelTime="113.18" duration="0" />
    <emission-state time="180" loaded="100" emitted="100" running="49" waiting="0" ended="51" meanWaitingTime="0.82" meanTravelTime="113.18" duration="0" />
    <emission-state time="181" loaded="100" emitted="100" running="49" waiting="0" ended="51" meanWaitingTime="0.82" meanTravelTime="113.18" duration="1" />
    <emission-state time="182" loaded="100" emitted="100" running="49" waiting="0" ended="51" meanWaitingTime="0.82" meanTravelTime="113.18" duration="0" />
    <emission-state time="183" loaded="100" emitted="100" running="49" waiting="0" ended="51" meanWaitingTime="0.82" meanTravelTime="113.18" duration="0" />
    <emission-state time="184" loaded="100" emitted="100" running="49" waiting="0" ended="51" meanWaitingTime="0.82" meanTravelTime="113.18" duration="0" />
    <emission-state time="185" loaded="100" emitted="100" running="49" waiting="0" ended="51" meanWaitingTime="0.82" meanTravelTime="113.18" duration="0" />