<?xml version="1.0"?>

<!-- generated on Thu Jun 10 15:11:08 2010 by SUMO sumo Version 0.11.1
<configuration>

    <input>
        <net-file value="bahia-rivadavia/20/rivadavia.net.xml"/>
        <route-files value="bahia-rivadavia/20/rivadavia.100.rou.xml"/>
        <additional-files value="bahia-rivadavia/20/tl-logic.add.xml"/>
    </input>

    <output>
        <emissions-output value="bahia-rivadavia/20/output-emissions.xml"/>
        <tripinfo-output value="bahia-rivadavia/20/output-tripinfos.xml"/>
        <vehroute-output value="bahia-rivadavia/20/output-vehroutes.xml"/>
    </output>

    <time>
        <begin value="0"/>
        <end value="500"/>
    </time>

    <processing>
        <route-steps value="-1"/>
        <time-to-teleport value="-1"/>
    </processing>

    <report>
        <print-options value="false"/>
        <suppress-warnings value="true"/>
    </report>

    <random_number>
        <srand value="23423"/>
    </random_number>

    <gui_only>
        <gui-settings-file value=""/>
    </gui_only>

</configuration>
-->

<tripinfos>
    <tripinfo id="Rand27" depart="0" departLane="27083337#1_0" departPos="0.00" departSpeed="0.00" departDelay="0" arrival="1" arrivalLane="27083337#1_0" arrivalPos="1.87" arrivalSpeed="1.87" duration="1" routeLength="1.87" waitSteps="0" rerouteNo="0" devices="" vtype="DEFAULT_VEHTYPE" vaporized=""></tripinfo>
    <tripinfo id="Rand63" depart="0" departLane="27053106#1_0" departPos="0.00" departSpeed="0.00" departDelay="0" arrival="47" arrivalLane="27052069#1_0" arrivalPos="4.48" arrivalSpeed="13.61" duration="47" routeLength="740.60" waitSteps="0" rerouteNo="0" devices="" vtype="DEFAULT_VEHTYPE" vaporized=""></tripinfo>
    <tripinfo id="Rand32" depart="0" departLane="27077992#1_0" departPos="0.00" departSpeed="0.00" departDelay="0" arrival="51" arrivalLane="27082600#5_0" arrivalPos="0.32" arrivalSpeed="8.94" duration="51" routeLength="536.40" waitSteps="0" rerouteNo="0" devices="" vtype="DEFAULT_VEHTYPE" vaporized=""></tripinfo>
    <tripinfo id="Rand15" depart="3" departLane="27053791#1_0" departPos="0.00" departSpeed="0.00" departDelay="3" arrival="56" arrivalLane="27082624#4_0" arrivalPos="3.32" arrivalSpeed="7.16" duration="53" routeLength="529.23" waitSteps="0" rerouteNo="0" devices="" vtype="DEFAULT_VEHTYPE" vaporized=""></tripinfo>
    <tripinfo id="Rand0" depart="0" departLane="27082625#0_0" departPos="0.00" departSpeed="0.00" departDelay="0" arrival="62" arrivalLane="27053791#4_0" arrivalPos="2.02" arrivalSpeed="5.93" duration="62" routeLength="475.73" waitSteps="5" rerouteNo="0" devices="" vtype="DEFAULT_VEHTYPE" vaporized=""></tripinfo>
    <tripinfo id="Rand94" depart="3" departLane="27083337#2_0" departPos="0.00" departSpeed="0.00" departDelay="3" arrival="68" arrivalLane="-27494703#1_0" arrivalPos="3.77" arrivalSpeed="7.64" duration="65" routeLength="484.15" waitSteps="15" rerouteNo="0" devices="" vtype="DEFAULT_VEHTYPE" vaporized=""></tripinfo>
    <tripinfo id="Rand42" depart="0" departLane="27056034#2_0" departPos="0.00" departSpeed="0.00" departDelay="0" arrival="71" arrivalLane="27056035#1_0" arrivalPos="3.52" arrivalSpeed="7.13" duration="71" routeLength="318.14" waitSteps="26" rerouteNo="0" devices="" vtype="DEFAULT_VEHTYPE" vaporized=""></tripinfo>
    <tripinfo id="Rand106" depart="0" departLane="27082604#3_0" departPos="0.00" departSpeed="0.00" departDelay="0" arrival="72" arrivalLane="27082629#6_0" arrivalPos="1.82" arrivalSpeed="21.57" duration="72" routeLength="323.91" waitSteps="41" rerouteNo="0" devices="" vtype="DEFAULT_VEHTYPE" vaporized=""></tripinfo>
    <tripinfo id="Rand116" depart="0" departLane="27082616#1_0" departPos="0.00" departSpeed="0.00" departDelay="0" arrival="72" arrivalLane="27082600#2_0" arrivalPos="2.43" arrivalSpeed="4.71" duration="72" routeLength="753.40" waitSteps="0" rerouteNo="0" devices="" vtype="DEFAULT_VEHTYPE" vaporized=""></tripinfo>
    <tripinfo id="Rand108" depart="0" departLane="27082600#1_0" departPos="0.00" departSpeed="0.00" departDelay="0" arrival="74" arrivalLane="27052069#1_0" arrivalPos="6.50" arrivalSpeed="13.76" duration="74" routeLength="1026.28" waitSteps="0" rerouteNo="0" devices="" vtype="DEFAULT_VEHTYPE" vaporized=""></tripinfo>
    <tripinfo id="Rand77" depart="3" departLane="27082629#0_0" departPos="0.00" departSpeed="0.00" departDelay="3" arrival="75" arrivalLane="27083324#0_0" arrivalPos="6.98" arrivalSpeed="7.90" duration="72" routeLength="642.41" waitSteps="11" rerouteNo="0" devices="" vtype="DEFAULT_VEHTYPE" vaporized=""></tripinfo>
    <tripinfo id="Rand19" depart="0" departLane="27082616#5_0" departPos="0.00" departSpeed="0.00" departDelay="0" arrival="80" arrivalLane="27082600#2_0" arrivalPos="8.65" arrivalSpeed="13.51" duration="80" routeLength="922.67" waitSteps="0" rerouteNo="0" devices="" vtype="DEFAULT_VEHTYPE" vaporized=""></tripinfo>
    <tripinfo id="Rand100" depart="0" departLane="27122600#0_0" departPos="0.00" departSpeed="0.00" departDelay="0" arrival="89" arrivalLane="27083324#0_0" arrivalPos="5.10" arrivalSpeed="6.53" duration="89" routeLength="797.63" waitSteps="19" rerouteNo="0" devices="" vtype="DEFAULT_VEHTYPE" vaporized=""></tripinfo>
    <tripinfo id="Rand52" depart="3" departLane="27082624#4_0" departPos="0.00" departSpeed="0.00" departDelay="3" arrival="91" arrivalLane="27083324#1_0" arrivalPos="0.33" arrivalSpeed="12.97" duration="88" routeLength="543.99" waitSteps="30" rerouteNo="0" devices="" vtype="DEFAULT_VEHTYPE" vaporized=""></tripinfo>
    <tripinfo id="Rand89" depart="0" departLane="28813885#4_0" departPos="0.00" departSpeed="0.00" departDelay="0" arrival="99" arrivalLane="27077992#3_0" arrivalPos="0.20" arrivalSpeed="13.40" duration="99" routeLength="907.35" waitSteps="16" rerouteNo="0" devices="" vtype="DEFAULT_VEHTYPE" vaporized=""></tripinfo>
    <tripinfo id="Rand120" depart="0" departLane="27053170#3_0" departPos="0.00" departSpeed="0.00" departDelay="0" arrival="101" arrivalLane="27083324#0_0" arrivalPos="3.03" arrivalSpeed="7.34" duration="101" routeLength="1091.80" waitSteps="2" rerouteNo="0" devices="" vtype="DEFAULT_VEHTYPE" vaporized=""></tripinfo>
    <tripinfo id="Rand22" depart="0" departLane="27082625#2_0" departPos="0.00" departSpeed="0.00" departDelay="0" arrival="102" arrivalLane="27078417#0_0" arrivalPos="6.70" arrivalSpeed="13.09" duration="102" routeLength="733.01" waitSteps="24" rerouteNo="0" devices="" vtype="DEFAULT_VEHTYPE" vaporized=""></tripinfo>
    <tripinfo id="Rand61" depart="0" departLane="-27082628#2_0" departPos="0.00" departSpeed="0.00" departDelay="0" arrival="102" arrivalLane="27083324#3_0" arrivalPos="1.39" arrivalSpeed="5.92" duration="102" routeLength="1348.73" waitSteps="0" rerouteNo="0" devices="" vtype="DEFAULT_VEHTYPE" vaporized=""></tripinfo>
    <tripinfo id="Rand55" depart="0" departLane="27056027#0_0" departPos="0.00" departSpeed="0.00" departDelay="0" arrival="102" arrivalLane="-28629700#2_1" arrivalPos="1.08" arrivalSpeed="3.84" duration="102" routeLength="665.17" waitSteps="26" rerouteNo="0" devices="" vtype="DEFAULT_VEHTYPE" vaporized=""></tripinfo>
    <tripinfo id="Rand6" depart="3" departLane="27082625#2_0" departPos="0.00" departSpeed="0.00" departDelay="3" arrival="102" arrivalLane="27082629#5_0" arrivalPos="6.15" arrivalSpeed="21.10" duration="99" routeLength="778.85" waitSteps="20" rerouteNo="0" devices="" vtype="DEFAULT_VEHTYPE" vaporized=""></tripinfo>
    <tripinfo id="Rand71" depart="0" departLane="28813885#3_0" departPos="0.00" departSpeed="0.00" departDelay="0" arrival="103" arrivalLane="27082625#1_0" arrivalPos="3.14" arrivalSpeed="7.74" duration="103" routeLength="1046.70" waitSteps="9" rerouteNo="0" devices="" vtype="DEFAULT_VEHTYPE" vaporized=""></tripinfo>
    <tripinfo id="Rand79" depart="0" departLane="27052069#1_0" departPos="0.00" departSpeed="0.00" departDelay="0" arrival="108" arrivalLane="27053171#0_0" arrivalPos="2.91" arrivalSpeed="21.39" duration="108" routeLength="1045.33" waitSteps="24" rerouteNo="0" devices="" vtype="DEFAULT_VEHTYPE" vaporized=""></tripinfo>
    <tripinfo id="Rand28" depart="0" departLane="27082624#4_0" departPos="0.00" departSpeed="0.00" departDelay="0" arrival="110" arrivalLane="27082604#1_0" arrivalPos="4.20" arrivalSpeed="6.97" duration="110" routeLength="741.62" waitSteps="32" rerouteNo="0" devices="" vtype="DEFAULT_VEHTYPE" vaporized=""></tripinfo>
    <tripinfo id="Rand128" depart="0" departLane="27082604#1_0" departPos="0.00" departSpeed="0.00" departDelay="0" arrival="116" arrivalLane="27053782#1_0" arrivalPos="2.45" arrivalSpeed="13.52" duration="116" routeLength="1441.07" waitSteps="0" rerouteNo="0" devices="" vtype="DEFAULT_VEHTYPE" vaporized=""></tripinfo>
    <tripinfo id="Rand43" depart="1" departLane="-28629700#2_0" departPos="0.00" departSpeed="0.00" departDelay="1" arrival="116" arrivalLane="27122600#1_0" arrivalPos="3.93" arrivalSpeed="5.17" duration="115" routeLength="620.61" waitSteps="50" rerouteNo="0" devices="" vtype="DEFAULT_VEHTYPE" vaporized=""></tripinfo>
    <tripinfo id="Rand23" depart="0" departLane="27083324#0_0" departPos="0.00" departSpeed="0.00" departDelay="0" arrival="116" arrivalLane="27082628#3_0" arrivalPos="2.93" arrivalSpeed="8.12" duration="116" routeLength="1100.58" waitSteps="27" rerouteNo="0" devices="" vtype="DEFAULT_VEHTYPE" vaporized=""></tripinfo>
    <tripinfo id="Rand105" depart="0" departLane="28813885#5_0" departPos="0.00" departSpeed="0.00" departDelay="0" arrival="119" arrivalLane="-28629700#0_0" arrivalPos="4.96" arrivalSpeed="7.65" duration="119" routeLength="942.89" waitSteps="42" rerouteNo="0" devices="" vtype="DEFAULT_VEHTYPE" vaporized=""></tripinfo>
    <tripinfo id="Rand36" depart="0" departLane="-28629700#2_0" departPos="0.00" departSpeed="0.00" departDelay="0" arrival="119" arrivalLane="27083324#3_0" arrivalPos="4.23" arrivalSpeed="7.41" duration="119" routeLength="1424.82" waitSteps="0" rerouteNo="0" devices="" vtype="DEFAULT_VEHTYPE" vaporized=""></tripinfo>
    <tripinfo id="Rand73" depart="3" departLane="27053170#3_0" departPos="0.00" departSpeed="0.00" departDelay="3" arrival="122" arrivalLane="27077992#4_0" arrivalPos="5.98" arrivalSpeed="6.49" duration="119" routeLength="1295.38" waitSteps="1" rerouteNo="0" devices="" vtype="DEFAULT_VEHTYPE" vaporized=""></tripinfo>
    <tripinfo id="Rand34" depart="6" departLane="27082616#1_0" departPos="0.00" departSpeed="0.00" departDelay="6" arrival="123" arrivalLane="27082629#5_0" arrivalPos="5.65" arrivalSpeed="7.60" duration="117" routeLength="1095.04" waitSteps="5" rerouteNo="0" devices="" vtype="DEFAULT_VEHTYPE" vaporized=""></tripinfo>
    <tripinfo id="Rand87" depart="0" departLane="27052071#0_0" departPos="0.00" departSpeed="0.00" departDelay="0" arrival="123" arrivalLane="27056027#3_0" arrivalPos="3.30" arrivalSpeed="7.33" duration="123" routeLength="1204.03" waitSteps="0" rerouteNo="0" devices="" vtype="DEFAULT_VEHTYPE" vaporized=""></tripinfo>
    <tripinfo id="Rand56" depart="0" departLane="27082628#4_0" departPos="0.00" departSpeed="0.00" departDelay="0" arrival="125" arrivalLane="27082617#2_0" arrivalPos="8.44" arrivalSpeed="13.27" duration="125" routeLength="1447.38" waitSteps="0" rerouteNo="0" devices="" vtype="DEFAULT_VEHTYPE" vaporized=""></tripinfo>
    <tripinfo id="Rand84" depart="6" departLane="27055797#0_0" departPos="0.00" departSpeed="0.00" departDelay="6" arrival="126" arrivalLane="27052069#0_0" arrivalPos="4.09" arrivalSpeed="7.84" duration="120" routeLength="1356.93" waitSteps="0" rerouteNo="0" devices="" vtype="DEFAULT_VEHTYPE" vaporized=""></tripinfo>
    <tripinfo id="Rand66" depart="0" departLane="27082600#2_0" departPos="0.00" departSpeed="0.00" departDelay="0" arrival="130" arrivalLane="27053790#4_0" arrivalPos="1.75" arrivalSpeed="13.23" duration="130" routeLength="1396.66" waitSteps="7" rerouteNo="0" devices="" vtype="DEFAULT_VEHTYPE" vaporized=""></tripinfo>
    <tripinfo id="Rand30" depart="0" departLane="27494703#0_0" departPos="0.00" departSpeed="0.00" departDelay="0" arrival="131" arrivalLane="27082604#0_0" arrivalPos="10.43" arrivalSpeed="13.07" duration="131" routeLength="828.75" waitSteps="46" rerouteNo="0" devices="" vtype="DEFAULT_VEHTYPE" vaporized=""></tripinfo>
    <tripinfo id="Rand113" depart="3" departLane="27122600#0_0" departPos="0.00" departSpeed="0.00" departDelay="3" arrival="133" arrivalLane="27053790#2_0" arrivalPos="3.65" arrivalSpeed="6.31" duration="130" routeLength="1145.99" waitSteps="19" rerouteNo="0" devices="" vtype="DEFAULT_VEHTYPE" vaporized=""></tripinfo>
    <tripinfo id="Rand5" depart="0" departLane="-27082628#0_0" departPos="0.00" departSpeed="0.00" departDelay="0" arrival="144" arrivalLane="27082628#4_1" arrivalPos="6.76" arrivalSpeed="7.64" duration="144" routeLength="896.91" waitSteps="56" rerouteNo="0" devices="" vtype="DEFAULT_VEHTYPE" vaporized=""></tripinfo>
    <tripinfo id="Rand21" depart="0" departLane="27052069#0_0" departPos="0.00" departSpeed="0.00" departDelay="0" arrival="145" arrivalLane="27056036#2_0" arrivalPos="5.08" arrivalSpeed="7.13" duration="145" routeLength="1358.05" waitSteps="0" rerouteNo="0" devices="" vtype="DEFAULT_VEHTYPE" vaporized=""></tripinfo>
    <tripinfo id="Rand49" depart="0" departLane="27082628#0_0" departPos="0.00" departSpeed="0.00" departDelay="0" arrival="145" arrivalLane="27053791#5_0" arrivalPos="1.41" arrivalSpeed="5.46" duration="145" routeLength="1069.17" waitSteps="30" rerouteNo="0" devices="" vtype="DEFAULT_VEHTYPE" vaporized=""></tripinfo>
    <tripinfo id="Rand46" depart="0" departLane="-28629700#1_0" departPos="0.00" departSpeed="0.00" departDelay="0" arrival="146" arrivalLane="27053170#4_0" arrivalPos="9.80" arrivalSpeed="13.03" duration="146" routeLength="1694.49" waitSteps="0" rerouteNo="0" devices="" vtype="DEFAULT_VEHTYPE" vaporized=""></tripinfo>
    <tripinfo id="Rand60" depart="3" departLane="27052071#1_0" departPos="0.00" departSpeed="0.00" departDelay="3" arrival="153" arrivalLane="27083324#0_0" arrivalPos="5.95" arrivalSpeed="8.51" duration="150" routeLength="1444.03" waitSteps="15" rerouteNo="0" devices="" vtype="DEFAULT_VEHTYPE" vaporized=""></tripinfo>
    <tripinfo id="Rand40" depart="6" departLane="27053791#1_0" departPos="0.00" departSpeed="0.00" departDelay="6" arrival="153" arrivalLane="27122600#0_0" arrivalPos="13.76" arrivalSpeed="21.75" duration="147" routeLength="1654.22" waitSteps="17" rerouteNo="0" devices="" vtype="DEFAULT_VEHTYPE" vaporized=""></tripinfo>
    <tripinfo id="Rand112" depart="0" departLane="27083337#3_0" departPos="0.00" departSpeed="0.00" departDelay="0" arrival="158" arrivalLane="28813885#5_0" arrivalPos="0.93" arrivalSpeed="7.45" duration="158" routeLength="1007.77" waitSteps="43" rerouteNo="0" devices="" vtype="DEFAULT_VEHTYPE" vaporized=""></tripinfo>
    <tripinfo id="Rand124" depart="0" departLane="27056035#0_0" departPos="0.00" departSpeed="0.00" departDelay="0" arrival="160" arrivalLane="28629700#0_1" arrivalPos="4.83" arrivalSpeed="6.84" duration="160" routeLength="2148.20" waitSteps="13" rerouteNo="0" devices="" vtype="DEFAULT_VEHTYPE" vaporized=""></tripinfo>
    <tripinfo id="Rand10" depart="0" departLane="27055797#1_0" departPos="0.00" departSpeed="0.00" departDelay="0" arrival="162" arrivalLane="27077992#3_0" arrivalPos="1.45" arrivalSpeed="13.75" duration="162" routeLength="1689.85" waitSteps="2" rerouteNo="0" devices="" vtype="DEFAULT_VEHTYPE" vaporized=""></tripinfo>
    <tripinfo id="Rand125" depart="0" departLane="-27082628#5_0" departPos="0.00" departSpeed="0.00" departDelay="0" arrival="163" arrivalLane="27082604#2_0" arrivalPos="5.18" arrivalSpeed="7.58" duration="163" routeLength="2638.48" waitSteps="0" rerouteNo="0" devices="" vtype="DEFAULT_VEHTYPE" vaporized=""></tripinfo>
    <tripinfo id="Rand13" depart="3" departLane="27082616#1_0" departPos="0.00" departSpeed="0.00" departDelay="3" arrival="165" arrivalLane="27154183#3_0" arrivalPos="2.56" arrivalSpeed="13.82" duration="162" routeLength="1775.74" waitSteps="10" rerouteNo="0" devices="" vtype="DEFAULT_VEHTYPE" vaporized=""></tripinfo>
    <tripinfo id="Rand129" depart="0" departLane="27053791#1_0" departPos="0.00" departSpeed="0.00" departDelay="0" arrival="169" arrivalLane="27154183#3_0" arrivalPos="3.11" arrivalSpeed="13.14" duration="169" routeLength="1856.60" waitSteps="21" rerouteNo="0" devices="" vtype="DEFAULT_VEHTYPE" vaporized=""></tripinfo>
    <tripinfo id="Rand126" depart="0" departLane="27053790#1_0" departPos="0.00" departSpeed="0.00" departDelay="0" arrival="170" arrivalLane="27078417#3_0" arrivalPos="0.07" arrivalSpeed="5.36" duration="170" routeLength="1231.22" waitSteps="39" rerouteNo="0" devices="" vtype="DEFAULT_VEHTYPE" vaporized=""></tripinfo>
    <tripinfo id="Rand117" depart="0" departLane="27053106#0_0" departPos="0.00" departSpeed="0.00" departDelay="0" arrival="173" arrivalLane="27053170#2_0" arrivalPos="2.20" arrivalSpeed="5.51" duration="173" routeLength="3368.55" waitSteps="0" rerouteNo="0" devices="" vtype="DEFAULT_VEHTYPE" vaporized=""></tripinfo>
    <tripinfo id="Rand7" depart="0" departLane="27053790#0_0" departPos="0.00" departSpeed="0.00" departDelay="0" arrival="175" arrivalLane="27082625#1_0" arrivalPos="4.05" arrivalSpeed="8.02" duration="175" routeLength="1396.32" waitSteps="37" rerouteNo="0" devices="" vtype="DEFAULT_VEHTYPE" vaporized=""></tripinfo>
    <tripinfo id="Rand54" depart="0" departLane="27053782#1_0" departPos="0.00" departSpeed="0.00" departDelay="0" arrival="189" arrivalLane="27082625#2_0" arrivalPos="7.89" arrivalSpeed="13.48" duration="189" routeLength="1450.83" waitSteps="41" rerouteNo="0" devices="" vtype="DEFAULT_VEHTYPE" vaporized=""></tripinfo>
    <tripinfo id="Rand123" depart="0" departLane="27053791#4_0" departPos="0.00" departSpeed="0.00" departDelay="0" arrival="191" arrivalLane="27053782#2_0" arrivalPos="3.14" arrivalSpeed="7.21" duration="191" routeLength="1761.97" waitSteps="7" rerouteNo="0" devices="" vtype="DEFAULT_VEHTYPE" vaporized=""></tripinfo>
    <tripinfo id="Rand53" depart="6" departLane="27122600#0_0" departPos="0.00" departSpeed="0.00" departDelay="6" arrival="192" arrivalLane="28629700#3_1" arrivalPos="2.57" arrivalSpeed="5.83" duration="186" routeLength="1147.41" waitSteps="64" rerouteNo="0" devices="" vtype="DEFAULT_VEHTYPE" vaporized=""></tripinfo>
    <tripinfo id="Rand110" depart="0" departLane="27082624#3_0" departPos="0.00" departSpeed="0.00" departDelay="0" arrival="192" arrivalLane="27082625#3_0" arrivalPos="8.69" arrivalSpeed="13.13" duration="192" routeLength="1354.32" waitSteps="43" rerouteNo="0" devices="" vtype="DEFAULT_VEHTYPE" vaporized=""></tripinfo>
    <tripinfo id="Rand45" depart="0" departLane="27082617#4_0" departPos="0.00" departSpeed="0.00" departDelay="0" arrival="193" arrivalLane="27082624#3_0" arrivalPos="12.94" arrivalSpeed="13.66" duration="193" routeLength="1626.98" waitSteps="37" rerouteNo="0" devices="" vtype="DEFAULT_VEHTYPE" vaporized=""></tripinfo>
    <tripinfo id="Rand86" depart="3" departLane="27082617#4_0" departPos="0.00" departSpeed="0.00" departDelay="3" arrival="207" arrivalLane="27052069#1_0" arrivalPos="8.08" arrivalSpeed="13.48" duration="204" routeLength="1909.14" waitSteps="55" rerouteNo="0" devices="" vtype="DEFAULT_VEHTYPE" vaporized=""></tripinfo>
    <tripinfo id="Rand96" depart="3" departLane="27053791#4_0" departPos="0.00" departSpeed="0.00" departDelay="3" arrival="209" arrivalLane="27082617#4_0" arrivalPos="12.02" arrivalSpeed="13.54" duration="206" routeLength="1975.59" waitSteps="7" rerouteNo="0" devices="" vtype="DEFAULT_VEHTYPE" vaporized=""></tripinfo>
    <tripinfo id="Rand102" depart="0" departLane="27053790#3_0" departPos="0.00" departSpeed="0.00" departDelay="0" arrival="214" arrivalLane="-28629700#0_0" arrivalPos="0.41" arrivalSpeed="5.39" duration="214" routeLength="1803.02" waitSteps="75" rerouteNo="0" devices="" vtype="DEFAULT_VEHTYPE" vaporized=""></tripinfo>
    <tripinfo id="Rand48" depart="0" departLane="28629700#2_0" departPos="0.00" departSpeed="0.00" departDelay="0" arrival="214" arrivalLane="27082628#3_0" arrivalPos="0.01" arrivalSpeed="7.12" duration="214" routeLength="1834.13" waitSteps="47" rerouteNo="0" devices="" vtype="DEFAULT_VEHTYPE" vaporized=""></tripinfo>
    <tripinfo id="Rand51" depart="3" departLane="28629700#0_0" departPos="0.00" departSpeed="0.00" departDelay="3" arrival="216" arrivalLane="27082629#1_0" arrivalPos="19.02" arrivalSpeed="21.59" duration="213" routeLength="2241.45" waitSteps="58" rerouteNo="0" devices="" vtype="DEFAULT_VEHTYPE" vaporized=""></tripinfo>
    <tripinfo id="Rand9" depart="0" departLane="27077992#2_0" departPos="0.00" departSpeed="0.00" departDelay="0" arrival="216" arrivalLane="27056027#0_0" arrivalPos="3.70" arrivalSpeed="7.38" duration="216" routeLength="1852.93" waitSteps="71" rerouteNo="0" devices="" vtype="DEFAULT_VEHTYPE" vaporized=""></tripinfo>
    <tripinfo id="Rand1" depart="0" departLane="27056034#3_0" departPos="0.00" departSpeed="0.00" departDelay="0" arrival="218" arrivalLane="28813885#2_0" arrivalPos="10.32" arrivalSpeed="21.44" duration="218" routeLength="1512.38" waitSteps="61" rerouteNo="0" devices="" vtype="DEFAULT_VEHTYPE" vaporized=""></tripinfo>
    <tripinfo id="Rand58" depart="3" departLane="27053106#0_0" departPos="0.00" departSpeed="0.00" departDelay="3" arrival="219" arrivalLane="-28629700#0_0" arrivalPos="3.80" arrivalSpeed="6.75" duration="216" routeLength="3956.30" waitSteps="6" rerouteNo="0" devices="" vtype="DEFAULT_VEHTYPE" vaporized=""></tripinfo>
    <tripinfo id="Rand98" depart="3" departLane="-27494703#1_0" departPos="0.00" departSpeed="0.00" departDelay="3" arrival="225" arrivalLane="28813885#3_0" arrivalPos="5.80" arrivalSpeed="7.64" duration="222" routeLength="1309.07" waitSteps="66" rerouteNo="0" devices="" vtype="DEFAULT_VEHTYPE" vaporized=""></tripinfo>
    <tripinfo id="Rand92" depart="0" departLane="27083337#0_0" departPos="0.00" departSpeed="0.00" departDelay="0" arrival="229" arrivalLane="27083337#1_0" arrivalPos="4.95" arrivalSpeed="7.92" duration="229" routeLength="4777.22" waitSteps="0" rerouteNo="0" devices="" vtype="DEFAULT_VEHTYPE" vaporized=""></tripinfo>
    <tripinfo id="Rand72" depart="0" departLane="27082629#2_0" departPos="0.00" departSpeed="0.00" departDelay="0" arrival="230" arrivalLane="27052067#4_0" arrivalPos="3.97" arrivalSpeed="5.41" duration="230" routeLength="1262.44" waitSteps="94" rerouteNo="0" devices="" vtype="DEFAULT_VEHTYPE" vaporized=""></tripinfo>
    <tripinfo id="Rand91" depart="3" departLane="27053790#0_0" departPos="0.00" departSpeed="0.00" departDelay="3" arrival="231" arrivalLane="27052071#1_0" arrivalPos="10.27" arrivalSpeed="13.05" duration="228" routeLength="2189.09" waitSteps="25" rerouteNo="0" devices="" vtype="DEFAULT_VEHTYPE" vaporized=""></tripinfo>
    <tripinfo id="Rand103" depart="0" departLane="-27494703#1_0" departPos="0.00" departSpeed="0.00" departDelay="0" arrival="232" arrivalLane="27053791#1_0" arrivalPos="5.86" arrivalSpeed="7.42" duration="232" routeLength="1170.58" waitSteps="90" rerouteNo="0" devices="" vtype="DEFAULT_VEHTYPE" vaporized=""></tripinfo>
    <tripinfo id="Rand68" depart="0" departLane="27052067#3_0" departPos="0.00" departSpeed="0.00" departDelay="0" arrival="241" arrivalLane="-27494703#0_0" arrivalPos="0.22" arrivalSpeed="4.36" duration="241" routeLength="1291.79" waitSteps="107" rerouteNo="0" devices="" vtype="DEFAULT_VEHTYPE" vaporized=""></tripinfo>
    <tripinfo id="Rand75" depart="0" departLane="27082629#0_0" departPos="0.00" departSpeed="0.00" departDelay="0" arrival="243" arrivalLane="27494703#1_0" arrivalPos="0.33" arrivalSpeed="5.95" duration="243" routeLength="1378.95" waitSteps="93" rerouteNo="0" devices="" vtype="DEFAULT_VEHTYPE" vaporized=""></tripinfo>
    <tripinfo id="Rand85" depart="0" departLane="27122600#2_0" departPos="0.00" departSpeed="0.00" departDelay="0" arrival="244" arrivalLane="27053106#3_0" arrivalPos="5.92" arrivalSpeed="7.57" duration="244" routeLength="1958.41" waitSteps="62" rerouteNo="0" devices="" vtype="DEFAULT_VEHTYPE" vaporized=""></tripinfo>
    <tripinfo id="Rand81" depart="0" departLane="27082617#3_0" departPos="0.00" departSpeed="0.00" departDelay="0" arrival="247" arrivalLane="27494703#1_0" arrivalPos="4.10" arrivalSpeed="6.87" duration="247" routeLength="2057.12" waitSteps="61" rerouteNo="0" devices="" vtype="DEFAULT_VEHTYPE" vaporized=""></tripinfo>
    <tripinfo id="Rand90" depart="0" departLane="28408742#2_0" departPos="0.00" departSpeed="0.00" departDelay="0" arrival="247" arrivalLane="27053106#3_0" arrivalPos="5.08" arrivalSpeed="7.66" duration="247" routeLength="2059.91" waitSteps="47" rerouteNo="0" devices="" vtype="DEFAULT_VEHTYPE" vaporized=""></tripinfo>
    <tripinfo id="Rand62" depart="0" departLane="27486761_0" departPos="0.00" departSpeed="0.00" departDelay="0" arrival="248" arrivalLane="27053106#2_0" arrivalPos="5.14" arrivalSpeed="7.29" duration="248" routeLength="1877.00" waitSteps="66" rerouteNo="0" devices="" vtype="DEFAULT_VEHTYPE" vaporized=""></tripinfo>
    <tripinfo id="Rand119" depart="0" departLane="27053106#2_0" departPos="0.00" departSpeed="0.00" departDelay="0" arrival="248" arrivalLane="27053791#5_0" arrivalPos="3.11" arrivalSpeed="7.55" duration="248" routeLength="2021.67" waitSteps="63" rerouteNo="0" devices="" vtype="DEFAULT_VEHTYPE" vaporized=""></tripinfo>
    <tripinfo id="Rand59" depart="0" departLane="27077992#4_0" departPos="0.00" departSpeed="0.00" departDelay="0" arrival="250" arrivalLane="27056034#3_0" arrivalPos="0.13" arrivalSpeed="6.35" duration="250" routeLength="1826.51" waitSteps="85" rerouteNo="0" devices="" vtype="DEFAULT_VEHTYPE" vaporized=""></tripinfo>
    <tripinfo id="Rand39" depart="0" departLane="27494703#1_0" departPos="0.00" departSpeed="0.00" departDelay="0" arrival="251" arrivalLane="27082628#0_0" arrivalPos="5.33" arrivalSpeed="8.21" duration="251" routeLength="1372.21" waitSteps="85" rerouteNo="0" devices="" vtype="DEFAULT_VEHTYPE" vaporized=""></tripinfo>
    <tripinfo id="Rand3" depart="0" departLane="28813885#0_0" departPos="0.00" departSpeed="0.00" departDelay="0" arrival="260" arrivalLane="27122600#4_0" arrivalPos="3.49" arrivalSpeed="7.35" duration="260" routeLength="2670.18" waitSteps="72" rerouteNo="0" devices="" vtype="DEFAULT_VEHTYPE" vaporized=""></tripinfo>
    <tripinfo id="Rand78" depart="0" departLane="27154183#2_0" departPos="0.00" departSpeed="0.00" departDelay="0" arrival="265" arrivalLane="27082629#7_0" arrivalPos="8.18" arrivalSpeed="21.64" duration="265" routeLength="1895.20" waitSteps="66" rerouteNo="0" devices="" vtype="DEFAULT_VEHTYPE" vaporized=""></tripinfo>
    <tripinfo id="Rand12" depart="0" departLane="27639462#0_0" departPos="0.00" departSpeed="0.00" departDelay="0" arrival="266" arrivalLane="27083337#2_0" arrivalPos="5.41" arrivalSpeed="6.99" duration="266" routeLength="1692.16" waitSteps="82" rerouteNo="0" devices="" vtype="DEFAULT_VEHTYPE" vaporized=""></tripinfo>
    <tripinfo id="Rand76" depart="0" departLane="27082624#1_0" departPos="0.00" departSpeed="0.00" departDelay="0" arrival="273" arrivalLane="27639462#0_0" arrivalPos="7.82" arrivalSpeed="13.47" duration="273" routeLength="2306.76" waitSteps="72" rerouteNo="0" devices="" vtype="DEFAULT_VEHTYPE" vaporized=""></tripinfo>
    <tripinfo id="Rand74" depart="0" departLane="27053791#0_0" departPos="0.00" departSpeed="0.00" departDelay="0" arrival="274" arrivalLane="27639510_0" arrivalPos="13.26" arrivalSpeed="13.74" duration="274" routeLength="1630.44" waitSteps="98" rerouteNo="0" devices="" vtype="DEFAULT_VEHTYPE" vaporized=""></tripinfo>
    <tripinfo id="Rand101" depart="0" departLane="27082616#0_0" departPos="0.00" departSpeed="0.00" departDelay="0" arrival="280" arrivalLane="27639510_0" arrivalPos="2.17" arrivalSpeed="13.25" duration="280" routeLength="3072.60" waitSteps="38" rerouteNo="0" devices="" vtype="DEFAULT_VEHTYPE" vaporized=""></tripinfo>
    <tripinfo id="Rand35" depart="3" departLane="27082616#5_0" departPos="0.00" departSpeed="0.00" departDelay="3" arrival="282" arrivalLane="27053790#2_0" arrivalPos="3.14" arrivalSpeed="6.54" duration="279" routeLength="1941.33" waitSteps="94" rerouteNo="0" devices="" vtype="DEFAULT_VEHTYPE" vaporized=""></tripinfo>
    <tripinfo id="Rand38" depart="0" departLane="27083337#2_0" departPos="0.00" departSpeed="0.00" departDelay="0" arrival="284" arrivalLane="27053786#5_0" arrivalPos="4.73" arrivalSpeed="7.21" duration="284" routeLength="1775.53" waitSteps="78" rerouteNo="0" devices="" vtype="DEFAULT_VEHTYPE" vaporized=""></tripinfo>
    <tripinfo id="Rand33" depart="3" departLane="27052069#0_0" departPos="0.00" departSpeed="0.00" departDelay="3" arrival="286" arrivalLane="27053790#2_0" arrivalPos="5.07" arrivalSpeed="6.85" duration="283" routeLength="2022.12" waitSteps="78" rerouteNo="0" devices="" vtype="DEFAULT_VEHTYPE" vaporized=""></tripinfo>
    <tripinfo id="Rand18" depart="3" departLane="27053790#1_0" departPos="0.00" departSpeed="0.00" departDelay="3" arrival="293" arrivalLane="27639462#1_0" arrivalPos="3.05" arrivalSpeed="7.34" duration="290" routeLength="2536.44" waitSteps="61" rerouteNo="0" devices="" vtype="DEFAULT_VEHTYPE" vaporized=""></tripinfo>
    <tripinfo id="Rand88" depart="0" departLane="27082624#5_0" departPos="0.00" departSpeed="0.00" departDelay="0" arrival="301" arrivalLane="-27082628#1_1" arrivalPos="5.23" arrivalSpeed="6.44" duration="301" routeLength="1972.91" waitSteps="104" rerouteNo="0" devices="" vtype="DEFAULT_VEHTYPE" vaporized=""></tripinfo>
    <tripinfo id="Rand8" depart="0" departLane="-27494703#0_0" departPos="0.00" departSpeed="0.00" departDelay="0" arrival="305" arrivalLane="-27082628#1_1" arrivalPos="6.56" arrivalSpeed="8.01" duration="305" routeLength="1733.86" waitSteps="89" rerouteNo="0" devices="" vtype="DEFAULT_VEHTYPE" vaporized=""></tripinfo>