<?xml version="1.0" encoding="UTF-8"?>

<!-- generated on Wed 21 May 2014 05:28:41 PM AST by SUMO gui Version 0.18.0
<?xml version="1.0" encoding="UTF-8"?>

<configuration xmlns:xsi="http://www.w3.org/2001/XMLSchema-instance" xsi:noNamespaceSchemaLocation="http://sumo.sf.net/xsd/sumo-gui.exeConfiguration.xsd">

    <input>
        <net-file value="malaga-alameda/40/alameda.net.xml"/>
        <route-files value="malaga-alameda/40/alameda.500.rou.xml"/>
        <additional-files value="malaga-alameda/40/tl-logic.add.xml"/>
    </input>

    <output>
        <summary-output value="malaga-alameda/40/output-emissions.xml"/>
        <tripinfo-output value="malaga-alameda/40/output-tripinfos.xml"/>
        <vehroute-output value="malaga-alameda/40/output-vehroutes.xml"/>
        <save-state.prefix value="malaga-alameda/40/state"/>
    </output>

    <time>
        <begin value="0"/>
        <end value="5000"/>
    </time>

    <processing>
        <route-steps value="-1"/>
        <time-to-teleport value="-1"/>
    </processing>

    <random_number>
        <seed value="23423"/>
    </random_number>

</configuration>
-->

<routes xmlns:xsi="http://www.w3.org/2001/XMLSchema-instance" xsi:noNamespaceSchemaLocation="http://sumo.sf.net/xsd/routes_file.xsd">
    <vehicle id="9" depart="9.00" arrival="24.00">
        <route edges="-35773427#5 -35773427#4 -35773427#3 -35773427#2"/>
    </vehicle>

    <vehicle id="13" depart="13.00" arrival="30.00">
        <route edges="35901640#4 35901640#5 35901640#6 35901640#1 35901640#2 23161464#0"/>
    </vehicle>

    <vehicle id="4" depart="4.00" arrival="34.00">
        <route edges="35903165#0 35900338#2 35901640#4 35901640#5 35901640#6 35901640#1 30098199#0 -30098198"/>
    </vehicle>

    <vehicle id="11" depart="11.00" arrival="47.00">
        <route edges="61279142#1 -61279142#1 61278965 27131168#2"/>
    </vehicle>

    <vehicle id="17" depart="17.00" arrival="51.00">
        <route edges="-35773427#6 35901888#1 -30098184#1"/>
    </vehicle>

    <vehicle id="27" depart="27.00" arrival="52.00">
        <route edges="-61278965 61279142#1 -61279142#1"/>
    </vehicle>

    <vehicle id="60" depart="60.00" arrival="67.00">
        <route edges="35901912#0 35901912#1"/>
    </vehicle>

    <vehicle id="46" depart="49.00" arrival="71.00">
        <route edges="35902564#2 34474997#1 34474997#2 34474997#3 30098185#0 -35773427#3"/>
    </vehicle>

    <vehicle id="14" depart="15.00" arrival="80.00">
        <route edges="52491207 61335135#0 61335135#1 35903288#1 27131168#3 61279128#0"/>
    </vehicle>

    <vehicle id="59" depart="59.00" arrival="80.00">
        <route edges="-30098184#6 30098184#6 23162032#5 23162032#6 23162032#7"/>
    </vehicle>

    <vehicle id="33" depart="33.00" arrival="80.00">
        <route edges="35902785#0 35902785#0-AddedOffRampEdge 35902785#1 35902651#1 23162032#4 23162032#5 35902125#0 -27617850#1"/>
    </vehicle>

    <vehicle id="54" depart="54.00" arrival="87.00">
        <route edges="30098199#1 35903166#0 35903166#1 27131168#0 27131168#2"/>
    </vehicle>

    <vehicle id="0" depart="0.00" arrival="93.00">
        <route edges="35900338#0 35900343#0 35900343#1 35900343#2 35900343#3 -27617819#4 -27617819#3 -27617819#2 35901883#1"/>
    </vehicle>

    <vehicle id="47" depart="47.00" arrival="95.00">
        <route edges="52491207 61335135#0 35903338#1 30098199#5 35900338#1"/>
    </vehicle>

    <vehicle id="10" depart="10.00" arrival="98.00">
        <route edges="-27617806 27617806 61335135#0 35903338#1 30098199#5 35900338#1 23161464#1"/>
    </vehicle>

    <vehicle id="57" depart="57.00" arrival="98.00">
        <route edges="52491207 61335135#0 35903338#1 30098199#5 35900338#1"/>
    </vehicle>

    <vehicle id="80" depart="80.00" arrival="100.00">
        <route edges="30098184#0 30098184#1 35901888#2"/>
    </vehicle>

    <vehicle id="12" depart="12.00" arrival="101.00">
        <route edges="52491207 61335135#0 35903338#1 30098199#5 35900343#0 34474997#0 34474997#1 34474997#2 34474997#3 34474997#4 34474997#5 34474997#6"/>
    </vehicle>

    <vehicle id="62" depart="62.00" arrival="101.00">
        <route edges="35901883#4 34474997#3 34474997#4 34474997#5 -27617865#2 -35773427#1 -35773427#0 23162032#7"/>
    </vehicle>

    <vehicle id="87" depart="87.00" arrival="101.00">
        <route edges="-61278965 -61279142#0"/>
    </vehicle>

    <vehicle id="34" depart="34.00" arrival="104.00">
        <route edges="52491207 61335135#0 35903338#1 30098199#5 35900343#0 34474997#0 34474997#1 34474997#2 34474997#3 30098185#0 -30098185#0"/>
    </vehicle>

    <vehicle id="86" depart="86.00" arrival="105.00">
        <route edges="-27617865#2 35773427#2 35773427#3 -35773427#3"/>
    </vehicle>

    <vehicle id="40" depart="72.00" arrival="107.00">
        <route edges="61335135#0 35903338#1 30098199#5 35900343#0 34474997#0 34474997#1 34474997#2 34474997#3 34474997#4 34474997#5 34474997#6"/>
    </vehicle>

    <vehicle id="24" depart="24.00" arrival="109.00">
        <route edges="-27617819#2 27617819#2 35901888#3 35901912#0 35901912#1"/>
    </vehicle>

    <vehicle id="32" depart="32.00" arrival="113.00">
        <route edges="35901883#2 35901883#3 -35773427#4 30098185#1 30098185#2 30098184#4 35902033#1"/>
    </vehicle>

    <vehicle id="92" depart="93.00" arrival="115.00">
        <route edges="27617865#1 -35773427#1 -35773427#0"/>
    </vehicle>

    <vehicle id="43" depart="43.00" arrival="118.00">
        <route edges="30098185#1 30098185#2 -30098184#3 -30098184#2 -30098184#1 30098184#1"/>
    </vehicle>

    <vehicle id="94" depart="94.00" arrival="120.00">
        <route edges="35900338#0 35900343#0 34474997#0 34474997#1 34474997#2 34474997#3 30098185#0 -30098185#0"/>
    </vehicle>

    <vehicle id="107" depart="107.00" arrival="127.00">
        <route edges="27131168#2 27131168#3 61279128#0 61279128#1"/>
    </vehicle>

    <vehicle id="30" depart="30.00" arrival="134.00">
        <route edges="27617828#0 30098198 30098199#1 30098199#2 30098199#2-AddedOffRampEdge 30098199#4 30098199#5 35900343#0 34474997#0 34474997#1 34474997#2 34474997#3 34474997#4"/>
    </vehicle>

    <vehicle id="65" depart="65.00" arrival="135.00">
        <route edges="52491207 61335135#0 35903338#1 30098199#5 35900343#0 35900343#1 35900343#2"/>
    </vehicle>

    <vehicle id="61" depart="61.00" arrival="137.00">
        <route edges="35901888#2 27617819#3 27617819#4 35900343#4 35901640#5 35901640#6 35901640#1"/>
    </vehicle>

    <vehicle id="35" depart="35.00" arrival="138.00">
        <route edges="27617819#2 27617819#3 27617819#4 35903165#0 35903165#2 35903166#0 35903166#1"/>
    </vehicle>

    <vehicle id="98" depart="98.00" arrival="138.00">
        <route edges="35900343#1 -35773427#7 -35773427#6 -35773427#5"/>
    </vehicle>

    <vehicle id="41" depart="41.00" arrival="140.00">
        <route edges="27617860 27617819#0 27617819#1 27617819#2 35901888#3 35901912#0 35901912#1 35902785#3 35902785#3-AddedOffRampEdge 23162032#2"/>
    </vehicle>

    <vehicle id="104" depart="104.00" arrival="141.00">
        <route edges="35900338#0 35900343#0 34474997#0 34474997#1 35901888#0 -35773427#5"/>
    </vehicle>

    <vehicle id="25" depart="25.00" arrival="141.00">
        <route edges="27617828#0 30098198 30098199#1 30098199#2 30098199#2-AddedOffRampEdge 30098199#4 30098199#5 35900343#0 34474997#0 34474997#1 34474997#2 34474997#3 30098185#0 35773427#4"/>
    </vehicle>

    <vehicle id="133" depart="133.00" arrival="142.00">
        <route edges="30098199#1 35903166#0"/>
    </vehicle>

    <vehicle id="84" depart="84.00" arrival="143.00">
        <route edges="35901640#6 35901640#1 30098199#0 30098199#1 30098199#2 30098199#2-AddedOffRampEdge 30098199#4 30098199#5 35900338#1"/>
    </vehicle>

    <vehicle id="21" depart="49.00" arrival="143.00">
        <route edges="30098199#1 30098199#2 30098199#2-AddedOffRampEdge 30098199#4 30098199#5 35900343#0 34474997#0 34474997#1 34474997#2 34474997#3 34474997#4 34474997#5 -27617865#2"/>
    </vehicle>

    <vehicle id="70" depart="81.00" arrival="144.00">
        <route edges="27617819#3 27617819#4 35903165#0 23161464#1 35900343#0 35900343#1"/>
    </vehicle>

    <vehicle id="134" depart="134.00" arrival="146.00">
        <route edges="27617850#0 27617850#1"/>
    </vehicle>

    <vehicle id="26" depart="96.00" arrival="148.00">
        <route edges="-27617819#0 23162032#4 -30098184#6 27617850#4 -27617850#4"/>
    </vehicle>

    <vehicle id="63" depart="63.00" arrival="153.00">
        <route edges="30098199#2 30098199#2-AddedOffRampEdge 30098199#4 30098199#5 35900343#0 34474997#0 34474997#1 35901888#0 35901888#1"/>
    </vehicle>

    <vehicle id="64" depart="64.00" arrival="155.00">
        <route edges="35901826 35901640#1 30098199#0 30098199#1 30098199#2 30098199#2-AddedOffRampEdge 35903288#0 35903288#1 27131168#3"/>
    </vehicle>

    <vehicle id="128" depart="128.00" arrival="158.00">
        <route edges="23162032#5 35902125#0 27617865#1 35773427#2 35773427#3 30098185#1"/>
    </vehicle>

    <vehicle id="122" depart="122.00" arrival="159.00">
        <route edges="-35773427#0 35773427#0 35773427#1 35773427#2 35773427#3 35773427#4 35901883#4"/>
    </vehicle>

    <vehicle id="31" depart="31.00" arrival="162.00">
        <route edges="35901888#3 35901912#0 35901912#1 23162032#3 27617819#0 -30098185#3"/>
    </vehicle>

    <vehicle id="132" depart="132.00" arrival="164.00">
        <route edges="35901826 35901640#1 35901640#2 23161464#0 35900338#2"/>
    </vehicle>

    <vehicle id="44" depart="44.00" arrival="165.00">
        <route edges="-27617865#2 35773427#2 35773427#3 35773427#4 35773427#5 35773427#6 35773427#7 35900343#2 35900343#3 35903165#0 35903165#2 35903166#0 35903166#1"/>
    </vehicle>

    <vehicle id="66" depart="68.00" arrival="166.00">
        <route edges="35773427#5 35901888#1 35901888#2 -27617819#2 -27617819#1"/>
    </vehicle>

    <vehicle id="48" depart="70.00" arrival="167.00">
        <route edges="35901912#1 23162032#3 27617819#0 -30098185#3"/>
    </vehicle>

    <vehicle id="116" depart="116.00" arrival="168.00">
        <route edges="35902125#4 35901883#3 35773427#5 35901888#1 35901888#2 -27617819#2 -27617819#1"/>
    </vehicle>

    <vehicle id="77" depart="77.00" arrival="170.00">
        <route edges="30098199#0 30098199#1 30098199#2 30098199#2-AddedOffRampEdge 30098199#4 30098199#5 35900338#1 35900338#2 35901640#4 35901640#5 35901833#0"/>
    </vehicle>

    <vehicle id="50" depart="50.00" arrival="171.00">
        <route edges="35902651#0 35902651#1 27617819#0 27617819#1 27617819#2 27617819#3 27617819#4 35903165#0 35903165#2 30098199#2 30098199#2-AddedOffRampEdge 35903288#0 35903288#1 27131168#3"/>
    </vehicle>

    <vehicle id="6" depart="6.00" arrival="171.00">
        <route edges="35773427#3 30098185#1 30098185#2 30098185#3 27617819#1 -27617819#1"/>
    </vehicle>

    <vehicle id="8" depart="8.00" arrival="171.00">
        <route edges="-35901912#0 35901912#0 35901912#1 23162032#3 23162032#4 -30098184#6 -30098184#5 35902033#1"/>
    </vehicle>

    <vehicle id="143" depart="143.00" arrival="172.00">
        <route edges="-35900161 35901888#0 35773427#6"/>
    </vehicle>

    <vehicle id="42" depart="42.00" arrival="172.00">
        <route edges="35782161#0 35901912#0 35901912#1 23162032#3 27617819#0 -30098185#3 -30098185#2 35902125#4"/>
    </vehicle>

    <vehicle id="74" depart="74.00" arrival="173.00">
        <route edges="61279142#0 61279142#1 -61279128#0 27131168#4 35903338#0 35903338#1 30098199#5 35900343#0 34474997#0 34474997#1 34474997#2 34474997#3"/>
    </vehicle>

    <vehicle id="38" depart="41.00" arrival="173.00">
        <route edges="-35773427#7 35773427#7 35900343#2 35900343#3 35903165#0 35903165#2 30098199#2 30098199#2-AddedOffRampEdge 35903288#0 61335135#2"/>
    </vehicle>

    <vehicle id="55" depart="55.00" arrival="173.00">
        <route edges="27617860 27617819#0 -30098185#3 -30098184#3 35901883#2 35901883#3 35773427#5 35773427#6 -35773427#6"/>
    </vehicle>

    <vehicle id="36" depart="38.00" arrival="174.00">
        <route edges="27617819#2 27617819#3 27617819#4 35903165#0 35903165#2 30098199#2 30098199#2-AddedOffRampEdge 35903288#0 35903288#1"/>
    </vehicle>

    <vehicle id="118" depart="151.00" arrival="174.00">
        <route edges="23162032#4 23162032#5 23162032#6 23162032#7"/>
    </vehicle>

    <vehicle id="53" depart="54.00" arrival="175.00">
        <route edges="30098185#0 35773427#4 35773427#5 35773427#6 35773427#7 35900343#2 35900343#3 35903165#0 35903165#2 30098199#2 30098199#2-AddedOffRampEdge"/>
    </vehicle>

    <vehicle id="51" depart="51.00" arrival="175.00">
        <route edges="30098185#0 35773427#4 35773427#5 35773427#6 35773427#7 35900343#2 35900343#3 35903165#0 35903165#2 30098199#2 30098199#2-AddedOffRampEdge 35903288#0 61335135#2"/>
    </vehicle>

    <vehicle id="150" depart="150.00" arrival="175.00">
        <route edges="35900343#1 -35773427#7 -35773427#6 -35773427#5 -35773427#4"/>
    </vehicle>

    <vehicle id="71" depart="73.00" arrival="176.00">
        <route edges="35901883#0 27617819#2 27617819#3 35902564#0"/>
    </vehicle>

    <vehicle id="2" depart="2.00" arrival="178.00">
        <route edges="35903288#0 35903288#1 27131168#3 27131168#4 35903338#0 35903338#1 30098199#5 35900343#0 34474997#0 34474997#1 34474997#2 34474997#3 34474997#4 34474997#5 -27617865#2 -35773427#1 -27617850#0"/>
    </vehicle>

    <vehicle id="79" depart="79.00" arrival="179.00">
        <route edges="35773427#5 35773427#6 35773427#7 35900343#2 35900343#3 35900343#4 35901640#5 35901640#6 35901640#1 35901640#2"/>
    </vehicle>

    <vehicle id="81" depart="81.00" arrival="180.00">
        <route edges="35900343#0 35900343#1 35900343#2 35900343#3 35900343#4 35901640#5 35901833#0"/>
    </vehicle>

    <vehicle id="137" depart="161.00" arrival="181.00">
        <route edges="-30098184#1 35902564#1"/>
    </vehicle>

    <vehicle id="49" depart="49.00" arrival="181.00">
        <route edges="30098184#3 -30098184#3 35901883#2 35901883#3 35773427#5 35773427#6 35773427#7 -35773427#7"/>
    </vehicle>

    <vehicle id="166" depart="166.00" arrival="181.00">
        <route edges="34474997#3 30098185#0 -35773427#3"/>
    </vehicle>

    <vehicle id="99" depart="99.00" arrival="182.00">
        <route edges="35782161#0 35901912#0 35901912#1 23162032#3 23162032#4 23162032#5 23162032#6 35773427#0 35773427#1"/>
    </vehicle>

    <vehicle id="1" depart="1.00" arrival="186.00">
        <route edges="35902033#1 35902125#3 30098185#2 30098185#3 27617819#1 27617819#2 35901888#3 35901912#0 35901883#0"/>
    </vehicle>

    <vehicle id="131" depart="163.00" arrival="191.00">
        <route edges="30098184#2 30098184#3 -30098185#2 -30098185#1 35773427#4"/>
    </vehicle>

    <vehicle id="45" depart="45.00" arrival="193.00">
        <route edges="-27617850#0 27617850#0 35773427#1 35773427#2 35773427#3 35773427#4 35773427#5 35773427#6 35773427#7 35900343#2 35900343#3 35903165#0 35903165#2 30098199#2 30098199#2-AddedOffRampEdge 30098199#4"/>
    </vehicle>

    <vehicle id="39" depart="70.00" arrival="194.00">
        <route edges="-35901912#0 35901912#0 35901912#1 23162032#3 23162032#4 23162032#5 35902125#0 27617865#1 -27617865#1"/>
    </vehicle>

    <vehicle id="20" depart="20.00" arrival="195.00">
        <route edges="35902125#3 30098185#2 -30098184#3 -30098184#2 -30098184#1 -30098184#0 35900343#3 35900343#4 35901640#5 35901640#6 35901640#1 30098199#0 30098199#1"/>
    </vehicle>

    <vehicle id="180" depart="180.00" arrival="195.00">
        <route edges="27617819#0 27617819#1 27617819#2 27617819#3"/>
    </vehicle>

    <vehicle id="52" depart="52.00" arrival="197.00">
        <route edges="35902785#0 35902785#0-AddedOffRampEdge 35902785#1 35902651#1 27617819#0 27617819#1 27617819#2 27617819#3 27617819#4 35903165#0 35903165#2 30098199#2 30098199#2-AddedOffRampEdge 35903288#0 35903288#1 27131168#3 61279128#0 61279128#1"/>
    </vehicle>

    <vehicle id="95" depart="112.00" arrival="199.00">
        <route edges="27617819#1 35901883#1 35901883#2 35901883#3 35773427#5"/>
    </vehicle>

    <vehicle id="127" depart="127.00" arrival="204.00">
        <route edges="35773427#7 -35773427#7 35902564#2 34474997#1 34474997#2 34474997#3 34474997#4 34474997#5 -27617865#2 -27617865#1 -27617850#1"/>
    </vehicle>

    <vehicle id="90" depart="90.00" arrival="206.00">
        <route edges="23162032#2 -35901912#1 35901883#0 27617819#2 27617819#3 27617819#4 35903165#0"/>
    </vehicle>

    <vehicle id="109" depart="109.00" arrival="206.00">
        <route edges="35782161#0 35901912#0 35901912#1 23162032#3 23162032#4 23162032#5 23162032#6 23162032#7"/>
    </vehicle>

    <vehicle id="160" depart="160.00" arrival="206.00">
        <route edges="52491207 61335135#0 35903338#1 30098199#5 35900343#0 34474997#0 34474997#1 34474997#2 34474997#3 34474997#4 34474997#5 -27617865#2"/>
    </vehicle>

    <vehicle id="173" depart="173.00" arrival="208.00">
        <route edges="30098199#1 30098199#2 30098199#2-AddedOffRampEdge 30098199#4 -35903338#1 -35903338#0 27131168#5"/>
    </vehicle>

    <vehicle id="82" depart="121.00" arrival="209.00">
        <route edges="-27617819#4 -27617819#3 35901888#3 35901912#0 -35901912#0"/>
    </vehicle>

    <vehicle id="7" depart="7.00" arrival="209.00">
        <route edges="35903166#1 27131168#0 27131168#2 27131168#3 27131168#4 35903338#0 35903338#1 30098199#5 35900343#0 34474997#0 34474997#1 35901888#0 35901888#1"/>
    </vehicle>

    <vehicle id="197" depart="197.00" arrival="214.00">
        <route edges="23162032#6 23162032#7"/>
    </vehicle>

    <vehicle id="157" depart="157.00" arrival="215.00">
        <route edges="35902785#0-AddedOffRampEdge 35902785#1 35902651#1 27617819#0 -30098185#3 -30098184#3 35901883#2 35901883#3 -35773427#4"/>
    </vehicle>

    <vehicle id="158" depart="158.00" arrival="216.00">
        <route edges="30098184#3 -30098184#3 -30098184#2 -30098184#1 -30098184#0 35900343#3 35903165#0 35903165#2 30098199#2 30098199#2-AddedOffRampEdge 30098199#4 -35903338#1 -35903338#0 27131168#5"/>
    </vehicle>

    <vehicle id="3" depart="3.00" arrival="216.00">
        <route edges="30098185#3 27617819#1 27617819#2 27617819#3 27617819#4 35903165#0 23161464#1 35900343#0 35900343#1 35900343#2"/>
    </vehicle>

    <vehicle id="16" depart="16.00" arrival="216.00">
        <route edges="27617828#0 30098198 30098199#1 30098199#2 30098199#2-AddedOffRampEdge 30098199#4 30098199#5 35900343#0 35900343#1 35900343#2 35900343#3 -27617819#4 -27617819#3 35901888#3 35901912#0 35901912#1 -35901912#1"/>
    </vehicle>

    <vehicle id="96" depart="96.00" arrival="216.00">
        <route edges="52491207 61335135#0 35903338#1 30098199#5 35900343#0 34474997#0 34474997#1 34474997#2 34474997#3 34474997#4 34474997#5 -27617865#2 -27617865#1 35902125#2 35902125#3"/>
    </vehicle>

    <vehicle id="187" depart="187.00" arrival="216.00">
        <route edges="-30098185#1 -35773427#3 -35773427#2 -35773427#1 -27617850#0"/>
    </vehicle>

    <vehicle id="181" depart="181.00" arrival="218.00">
        <route edges="27617850#0 35773427#1 35773427#2 35773427#3 35773427#4 -35773427#4"/>
    </vehicle>

    <vehicle id="73" depart="73.00" arrival="219.00">
        <route edges="35902785#0 35902785#0-AddedOffRampEdge 35902785#1 35902651#1 27617819#0 27617819#1 27617819#2 27617819#3 27617819#4 35900343#4 35901640#5 35901640#6"/>
    </vehicle>

    <vehicle id="164" depart="164.00" arrival="220.00">
        <route edges="35900338#0 35900343#0 34474997#0 34474997#1 34474997#2 34474997#3 34474997#4 34474997#5 -27617865#2 -35773427#1 -35773427#0 23162032#7"/>
    </vehicle>

    <vehicle id="205" depart="205.00" arrival="221.00">
        <route edges="35901640#3 35901640#4 35901640#5 35901833#0"/>
    </vehicle>

    <vehicle id="162" depart="162.00" arrival="221.00">
        <route edges="35900338#1 23161464#1 35900343#0 34474997#0"/>
    </vehicle>

    <vehicle id="170" depart="170.00" arrival="222.00">
        <route edges="35901640#2 23161464#0 23161464#1 35900343#0 34474997#0 34474997#1 34474997#2 34474997#3 30098185#0 -30098185#0"/>
    </vehicle>

    <vehicle id="184" depart="184.00" arrival="223.00">
        <route edges="35902651#1 27617819#0 -30098185#3 -30098184#3 35901883#2 35901883#3 35901883#4 34474997#3"/>
    </vehicle>

    <vehicle id="141" depart="141.00" arrival="224.00">
        <route edges="30098199#0 30098199#1 30098199#2 30098199#2-AddedOffRampEdge 30098199#4 30098199#5 35900343#0 34474997#0 34474997#1 34474997#2 34474997#3 34474997#4 34474997#5 34474997#6"/>
    </vehicle>

    <vehicle id="161" depart="161.00" arrival="228.00">
        <route edges="35901826 35901640#1 30098199#0 30098199#1 30098199#2 30098199#2-AddedOffRampEdge 30098199#4 30098199#5 35900343#0 35900343#1 -35773427#7"/>
    </vehicle>

    <vehicle id="202" depart="202.00" arrival="231.00">
        <route edges="35901640#3 35901640#4 35901640#5 35901640#6 35901640#1 30098199#0 -30098198 30098198"/>
    </vehicle>

    <vehicle id="211" depart="217.00" arrival="232.00">
        <route edges="-35901912#1 35901912#1 23162032#3"/>
    </vehicle>

    <vehicle id="149" depart="149.00" arrival="235.00">
        <route edges="35902564#2 34474997#1 35901888#0 35773427#6 35773427#7 35900343#2 35900343#3 35903165#0 23161464#1 23161464#2"/>
    </vehicle>

    <vehicle id="76" depart="76.00" arrival="240.00">
        <route edges="35902564#1 35773427#7 35900343#2 35900343#3 35903165#0 35903165#2 30098199#2 30098199#2-AddedOffRampEdge 30098199#4 -35903338#1 35903338#1"/>
    </vehicle>

    <vehicle id="220" depart="220.00" arrival="242.00">
        <route edges="30098199#2-AddedOffRampEdge 30098199#4 -35903338#1 35903338#1"/>
    </vehicle>

    <vehicle id="148" depart="148.00" arrival="242.00">
        <route edges="35901826 35901640#1 30098199#0 30098199#1 30098199#2 30098199#2-AddedOffRampEdge 30098199#4 30098199#5 35900343#0 34474997#0 34474997#1 34474997#2 34474997#3 34474997#4 34474997#5 -27617865#2 -27617865#1"/>
    </vehicle>

    <vehicle id="209" depart="209.00" arrival="246.00">
        <route edges="61279128#1 -61279128#1 -61279128#0 27131168#4 27131168#5"/>
    </vehicle>

    <vehicle id="225" depart="228.00" arrival="247.00">
        <route edges="-27617865#1 -27617850#1"/>
    </vehicle>

    <vehicle id="204" depart="204.00" arrival="249.00">
        <route edges="35901640#2 23161464#0 35903165#2 35903166#0 35903166#1 27131168#0 27131168#2"/>
    </vehicle>

    <vehicle id="29" depart="29.00" arrival="252.00">
        <route edges="52491207 61335135#0 35903338#1 30098199#5 35900343#0 35900343#1 35900343#2 35900343#3 -27617819#4 -27617819#3 -27617819#2 27617819#2"/>
    </vehicle>

    <vehicle id="130" depart="181.00" arrival="252.00">
        <route edges="-27617819#2 27617819#2 35901888#3"/>
    </vehicle>

    <vehicle id="175" depart="175.00" arrival="255.00">
        <route edges="-27617865#2 35773427#2 35773427#3 35773427#4 35773427#5 35773427#6 35773427#7 -35773427#7"/>
    </vehicle>

    <vehicle id="192" depart="192.00" arrival="255.00">
        <route edges="35900338#0 35900343#0 35900343#1 35900343#2 30098184#0 30098184#1 30098184#2"/>
    </vehicle>

    <vehicle id="88" depart="88.00" arrival="256.00">
        <route edges="-27617850#1 27617850#1 27617850#3 -30098184#5 -30098184#4 30098185#3"/>
    </vehicle>

    <vehicle id="167" depart="167.00" arrival="257.00">
        <route edges="27617828#0 30098198 30098199#1 30098199#2 30098199#2-AddedOffRampEdge 30098199#4 30098199#5 35900338#1 35900338#2 35901640#4 35901640#5 35901833#0"/>
    </vehicle>

    <vehicle id="89" depart="89.00" arrival="258.00">
        <route edges="27617828#2 27131168#0 27131168#2 27131168#3 27131168#4 35903338#0 35903338#1 30098199#5 35900343#0 35900343#1 -35773427#7 35773427#7"/>
    </vehicle>

    <vehicle id="194" depart="194.00" arrival="259.00">
        <route edges="-35900161 35901888#0 35901888#1 35901888#2 35901888#3 35901912#0 -35901912#0"/>
    </vehicle>

    <vehicle id="201" depart="201.00" arrival="260.00">
        <route edges="27617828#0 30098198 30098199#1 30098199#2 30098199#2-AddedOffRampEdge 30098199#4 30098199#5 35900338#1 35900338#2 35901640#4 35901640#5 35901640#6"/>
    </vehicle>

    <vehicle id="100" depart="100.00" arrival="260.00">
        <route edges="52491207 61335135#0 61335135#1 35903288#1 27131168#3 61279128#0"/>
    </vehicle>

    <vehicle id="156" depart="156.00" arrival="262.00">
        <route edges="35773427#4 35773427#5 35901888#1 35901888#2 -27617819#2 35901883#1"/>
    </vehicle>

    <vehicle id="178" depart="178.00" arrival="262.00">
        <route edges="35901640#1 30098199#0 30098199#1 30098199#2 30098199#2-AddedOffRampEdge 30098199#4 30098199#5 35900343#0 34474997#0 34474997#1 34474997#2 34474997#3 34474997#4 34474997#5 -27617865#2 -27617865#1 35902125#2 35902125#3"/>
    </vehicle>

    <vehicle id="185" depart="185.00" arrival="262.00">
        <route edges="35773427#7 -35773427#7 -35773427#6 -35773427#5 -35773427#4 -35773427#3 35773427#3"/>
    </vehicle>

    <vehicle id="121" depart="128.00" arrival="264.00">
        <route edges="35900343#1 35900343#2 35900343#3 -27617819#4 -27617819#3 -27617819#2 35901883#1"/>
    </vehicle>

    <vehicle id="123" depart="123.00" arrival="265.00">
        <route edges="27131168#4 35903338#0 35903338#1 30098199#5 35900343#0 34474997#0 34474997#1 34474997#2 34474997#3 34474997#4 34474997#5 34474997#6"/>
    </vehicle>

    <vehicle id="124" depart="124.00" arrival="268.00">
        <route edges="27617819#1 27617819#2 27617819#3 27617819#4 35903165#0 35903165#2 30098199#2 30098199#2-AddedOffRampEdge 35903288#0 35903288#1 27131168#3 27131168#4"/>
    </vehicle>

    <vehicle id="135" depart="135.00" arrival="268.00">
        <route edges="35902785#0 35902785#0-AddedOffRampEdge 35902785#1 35902651#1 27617819#0 27617819#1 27617819#2 27617819#3 27617819#4 35903165#0 35903165#2 30098199#2 30098199#2-AddedOffRampEdge 35903288#0 35903288#1 27131168#3 61279128#0 -61279142#1"/>
    </vehicle>

    <vehicle id="195" depart="195.00" arrival="268.00">
        <route edges="27617828#0 30098198 30098199#1 30098199#2 30098199#2-AddedOffRampEdge 30098199#4 30098199#5 35900343#0 34474997#0 34474997#1 34474997#2 34474997#3 34474997#4 34474997#5 -27617865#2 -35773427#1 -27617850#0 27617850#0"/>
    </vehicle>

    <vehicle id="22" depart="22.00" arrival="269.00">
        <route edges="61279128#1 -61279128#1 -61279128#0 27131168#4 35903338#0 35903338#1 30098199#5 35900343#0 35900343#1 35900343#2 35900343#3 -27617819#4 -27617819#3"/>
    </vehicle>

    <vehicle id="179" depart="179.00" arrival="274.00">
        <route edges="-35773427#5 35773427#5 35901888#1 35901888#2 35901888#3 35901912#0 35901912#1 35902785#3 35902785#3-AddedOffRampEdge 23162032#2"/>
    </vehicle>

    <vehicle id="217" depart="246.00" arrival="275.00">
        <route edges="61335135#0 35903338#1 30098199#5 35900343#0 34474997#0 34474997#1 34474997#2 34474997#3"/>
    </vehicle>

    <vehicle id="251" depart="253.00" arrival="275.00">
        <route edges="35900343#3 35900343#4 35901640#5 35901833#0"/>
    </vehicle>

    <vehicle id="112" depart="113.00" arrival="278.00">
        <route edges="61279142#1 -61279128#0 27131168#4 35903338#0 35903338#1 30098199#5 35900338#1 35903165#2 30098199#2 30098199#2-AddedOffRampEdge"/>
    </vehicle>

    <vehicle id="152" depart="251.00" arrival="279.00">
        <route edges="-35773427#7 35902564#2 34474997#1 34474997#2 34474997#3 34474997#4 34474997#5 -27617865#2 27617865#2"/>
    </vehicle>

    <vehicle id="264" depart="266.00" arrival="281.00">
        <route edges="-30098185#0 34474997#4 34474997#5"/>
    </vehicle>

    <vehicle id="75" depart="75.00" arrival="283.00">
        <route edges="34474997#5 -27617865#2 -27617865#1 27617850#3 27617850#4 27617860 27617819#0 27617819#1 27617819#2 35901888#3 35901912#0 35901912#1 -35901912#1"/>
    </vehicle>

    <vehicle id="176" depart="176.00" arrival="285.00">
        <route edges="52491207 61335135#0 35903338#1 30098199#5 35900338#1 35900338#2 35901640#4 35901640#5"/>
    </vehicle>

    <vehicle id="111" depart="111.00" arrival="286.00">
        <route edges="27617865#2 -27617865#2 35773427#2 35773427#3 35773427#4 35773427#5 35773427#6 35773427#7 35900343#2 35900343#3 35903165#0 35903165#2 30098199#2 30098199#2-AddedOffRampEdge 30098199#4 -35903338#1 -35903338#0 27131168#5"/>
    </vehicle>

    <vehicle id="257" depart="258.00" arrival="286.00">
        <route edges="-30098184#1 35902564#1 35902564#2 34474997#1 35901888#0"/>
    </vehicle>

    <vehicle id="110" depart="110.00" arrival="288.00">
        <route edges="61279142#1 -61279128#0 27131168#4 35903338#0 35903338#1 30098199#5 35900338#1 35903165#2 30098199#2 30098199#2-AddedOffRampEdge 30098199#4"/>
    </vehicle>

    <vehicle id="226" depart="226.00" arrival="288.00">
        <route edges="61279128#1 -61279128#1 -61279142#1 61278965 -61278965"/>
    </vehicle>

    <vehicle id="28" depart="28.00" arrival="289.00">
        <route edges="35901883#3 35773427#5 35773427#6 35773427#7 35900343#2 35900343#3 35903165#0 35903165#2 30098199#2 30098199#2-AddedOffRampEdge 30098199#4 -35903338#1 -35903338#0 35903338#0"/>
    </vehicle>

    <vehicle id="67" depart="67.00" arrival="291.00">
        <route edges="23162032#5 35902125#0 27617850#3 -30098184#5 -30098184#4 -30098184#3 -30098184#2 -30098184#1 -30098184#0 35900343#3 35900343#4 35901640#5 35901640#6 35901640#1 35901640#2 35901640#3"/>
    </vehicle>

    <vehicle id="101" depart="101.00" arrival="291.00">
        <route edges="35900338#0 35900343#0 35900343#1 35900343#2 35900343#3 -27617819#4 27617819#4"/>
    </vehicle>

    <vehicle id="203" depart="203.00" arrival="291.00">