<?xml version="1.0" encoding="UTF-8"?>

<!-- generated on Wed 21 May 2014 05:28:41 PM AST by SUMO gui Version 0.18.0
<?xml version="1.0" encoding="UTF-8"?>

<configuration xmlns:xsi="http://www.w3.org/2001/XMLSchema-instance" xsi:noNamespaceSchemaLocation="http://sumo.sf.net/xsd/sumo-gui.exeConfiguration.xsd">

    <input>
        <net-file value="malaga-alameda/40/alameda.net.xml"/>
        <route-files value="malaga-alameda/40/alameda.500.rou.xml"/>
        <additional-files value="malaga-alameda/40/tl-logic.add.xml"/>
    </input>

    <output>
        <summary-output value="malaga-alameda/40/output-emissions.xml"/>
        <tripinfo-output value="malaga-alameda/40/output-tripinfos.xml"/>
        <vehroute-output value="malaga-alameda/40/output-vehroutes.xml"/>
        <save-state.prefix value="malaga-alameda/40/state"/>
    </output>

    <time>
        <begin value="0"/>
        <end value="5000"/>
    </time>

    <processing>
        <route-steps value="-1"/>
        <time-to-teleport value="-1"/>
    </processing>

    <random_number>
        <seed value="23423"/>
    </random_number>

</configuration>
-->

<tripinfos>
    <tripinfo id="9" depart="9.00" departLane="-35773427#5_0" departPos="5.10" departSpeed="0.00" departDelay="0.00" arrival="24.00" arrivalLane="-35773427#2_0" arrivalPos="52.67" arrivalSpeed="12.79" duration="15.00" routeLength="151.60" waitSteps="0" rerouteNo="0" devices="vehroute_9 tripinfo_9" vType="DEFAULT_VEHTYPE" vaporized=""/>
    <tripinfo id="13" depart="13.00" departLane="35901640#4_0" departPos="5.10" departSpeed="0.00" departDelay="0.00" arrival="30.00" arrivalLane="23161464#0_0" arrivalPos="104.04" arrivalSpeed="27.64" duration="17.00" routeLength="257.18" waitSteps="0" rerouteNo="0" devices="vehroute_13 tripinfo_13" vType="DEFAULT_VEHTYPE" vaporized=""/>
    <tripinfo id="4" depart="4.00" departLane="35903165#0_0" departPos="5.10" departSpeed="0.00" departDelay="0.00" arrival="34.00" arrivalLane="-30098198_0" arrivalPos="48.54" arrivalSpeed="13.26" duration="30.00" routeLength="386.80" waitSteps="0" rerouteNo="0" devices="vehroute_4 tripinfo_4" vType="DEFAULT_VEHTYPE" vaporized=""/>
    <tripinfo id="11" depart="11.00" departLane="61279142#1_0" departPos="5.10" departSpeed="0.00" departDelay="0.00" arrival="47.00" arrivalLane="27131168#2_0" arrivalPos="56.15" arrivalSpeed="15.14" duration="36.00" routeLength="272.47" waitSteps="4" rerouteNo="0" devices="vehroute_11 tripinfo_11" vType="DEFAULT_VEHTYPE" vaporized=""/>
    <tripinfo id="17" depart="17.00" departLane="-35773427#6_0" departPos="5.10" departSpeed="0.00" departDelay="0.00" arrival="51.00" arrivalLane="-30098184#1_0" arrivalPos="44.62" arrivalSpeed="12.76" duration="34.00" routeLength="219.74" waitSteps="4" rerouteNo="0" devices="vehroute_17 tripinfo_17" vType="DEFAULT_VEHTYPE" vaporized=""/>
    <tripinfo id="27" depart="27.00" departLane="-61278965_0" departPos="5.10" departSpeed="0.00" departDelay="0.00" arrival="52.00" arrivalLane="-61279142#1_0" arrivalPos="77.70" arrivalSpeed="17.47" duration="25.00" routeLength="216.32" waitSteps="0" rerouteNo="0" devices="vehroute_27 tripinfo_27" vType="DEFAULT_VEHTYPE" vaporized=""/>
    <tripinfo id="60" depart="60.00" departLane="35901912#0_0" departPos="5.10" departSpeed="0.00" departDelay="0.00" arrival="67.00" arrivalLane="35901912#1_0" arrivalPos="24.70" arrivalSpeed="13.25" duration="7.00" routeLength="48.74" waitSteps="0" rerouteNo="0" devices="vehroute_60 tripinfo_60" vType="DEFAULT_VEHTYPE" vaporized=""/>
    <tripinfo id="46" depart="49.00" departLane="35902564#2_0" departPos="5.10" departSpeed="0.00" departDelay="3.00" arrival="71.00" arrivalLane="-35773427#3_0" arrivalPos="29.44" arrivalSpeed="13.23" duration="22.00" routeLength="220.26" waitSteps="0" rerouteNo="0" devices="vehroute_46 tripinfo_46" vType="DEFAULT_VEHTYPE" vaporized=""/>
    <tripinfo id="14" depart="15.00" departLane="52491207_0" departPos="5.10" departSpeed="0.00" departDelay="1.00" arrival="80.00" arrivalLane="61279128#0_0" arrivalPos="49.83" arrivalSpeed="15.13" duration="65.00" routeLength="402.70" waitSteps="23" rerouteNo="0" devices="vehroute_14 tripinfo_14" vType="DEFAULT_VEHTYPE" vaporized=""/>
    <tripinfo id="59" depart="59.00" departLane="-30098184#6_0" departPos="5.10" departSpeed="0.00" departDelay="0.00" arrival="80.00" arrivalLane="23162032#7_0" arrivalPos="158.04" arrivalSpeed="26.51" duration="21.00" routeLength="364.50" waitSteps="0" rerouteNo="0" devices="vehroute_59 tripinfo_59" vType="DEFAULT_VEHTYPE" vaporized=""/>
    <tripinfo id="33" depart="33.00" departLane="35902785#0_0" departPos="5.10" departSpeed="0.00" departDelay="0.00" arrival="80.00" arrivalLane="-27617850#1_0" arrivalPos="89.37" arrivalSpeed="13.13" duration="47.00" routeLength="589.38" waitSteps="0" rerouteNo="0" devices="vehroute_33 tripinfo_33" vType="DEFAULT_VEHTYPE" vaporized=""/>
    <tripinfo id="54" depart="54.00" departLane="30098199#1_0" departPos="5.10" departSpeed="0.00" departDelay="0.00" arrival="87.00" arrivalLane="27131168#2_1" arrivalPos="56.15" arrivalSpeed="16.10" duration="33.00" routeLength="229.78" waitSteps="3" rerouteNo="0" devices="vehroute_54 tripinfo_54" vType="DEFAULT_VEHTYPE" vaporized=""/>
    <tripinfo id="0" depart="0.00" departLane="35900338#0_0" departPos="5.10" departSpeed="0.00" departDelay="0.00" arrival="93.00" arrivalLane="35901883#1_0" arrivalPos="98.65" arrivalSpeed="13.78" duration="93.00" routeLength="553.07" waitSteps="38" rerouteNo="0" devices="vehroute_0 tripinfo_0" vType="DEFAULT_VEHTYPE" vaporized=""/>
    <tripinfo id="47" depart="47.00" departLane="52491207_0" departPos="5.10" departSpeed="0.00" departDelay="0.00" arrival="95.00" arrivalLane="35900338#1_1" arrivalPos="283.36" arrivalSpeed="27.27" duration="48.00" routeLength="569.20" waitSteps="0" rerouteNo="0" devices="vehroute_47 tripinfo_47" vType="DEFAULT_VEHTYPE" vaporized=""/>
    <tripinfo id="10" depart="10.00" departLane="-27617806_0" departPos="5.10" departSpeed="0.00" departDelay="0.00" arrival="98.00" arrivalLane="23161464#1_1" arrivalPos="278.87" arrivalSpeed="27.37" duration="88.00" routeLength="750.33" waitSteps="28" rerouteNo="0" devices="vehroute_10 tripinfo_10" vType="DEFAULT_VEHTYPE" vaporized=""/>
    <tripinfo id="57" depart="57.00" departLane="52491207_0" departPos="5.10" departSpeed="0.00" departDelay="0.00" arrival="98.00" arrivalLane="35900338#1_1" arrivalPos="283.36" arrivalSpeed="27.42" duration="41.00" routeLength="569.20" waitSteps="0" rerouteNo="0" devices="vehroute_57 tripinfo_57" vType="DEFAULT_VEHTYPE" vaporized=""/>
    <tripinfo id="80" depart="80.00" departLane="30098184#0_0" departPos="5.10" departSpeed="0.00" departDelay="0.00" arrival="100.00" arrivalLane="35901888#2_0" arrivalPos="97.11" arrivalSpeed="12.73" duration="20.00" routeLength="180.54" waitSteps="0" rerouteNo="0" devices="vehroute_80 tripinfo_80" vType="DEFAULT_VEHTYPE" vaporized=""/>
    <tripinfo id="12" depart="12.00" departLane="52491207_0" departPos="5.10" departSpeed="0.00" departDelay="0.00" arrival="101.00" arrivalLane="34474997#6_1" arrivalPos="120.37" arrivalSpeed="26.95" duration="89.00" routeLength="730.27" waitSteps="26" rerouteNo="0" devices="vehroute_12 tripinfo_12" vType="DEFAULT_VEHTYPE" vaporized=""/>
    <tripinfo id="62" depart="62.00" departLane="35901883#4_0" departPos="5.10" departSpeed="0.00" departDelay="0.00" arrival="101.00" arrivalLane="23162032#7_0" arrivalPos="158.04" arrivalSpeed="25.30" duration="39.00" routeLength="459.95" waitSteps="0" rerouteNo="0" devices="vehroute_62 tripinfo_62" vType="DEFAULT_VEHTYPE" vaporized=""/>
    <tripinfo id="87" depart="87.00" departLane="-61278965_0" departPos="5.10" departSpeed="0.00" departDelay="0.00" arrival="101.00" arrivalLane="-61279142#0_0" arrivalPos="55.80" arrivalSpeed="16.38" duration="14.00" routeLength="116.72" waitSteps="0" rerouteNo="0" devices="vehroute_87 tripinfo_87" vType="DEFAULT_VEHTYPE" vaporized=""/>
    <tripinfo id="34" depart="34.00" departLane="52491207_0" departPos="5.10" departSpeed="0.00" departDelay="0.00" arrival="104.00" arrivalLane="-30098185#0_0" arrivalPos="33.89" arrivalSpeed="13.26" duration="70.00" routeLength="588.48" waitSteps="7" rerouteNo="0" devices="vehroute_34 tripinfo_34" vType="DEFAULT_VEHTYPE" vaporized=""/>
    <tripinfo id="86" depart="86.00" departLane="-27617865#2_0" departPos="5.10" departSpeed="0.00" departDelay="0.00" arrival="105.00" arrivalLane="-35773427#3_0" arrivalPos="29.44" arrivalSpeed="13.03" duration="19.00" routeLength="143.85" waitSteps="0" rerouteNo="0" devices="vehroute_86 tripinfo_86" vType="DEFAULT_VEHTYPE" vaporized=""/>
    <tripinfo id="40" depart="72.00" departLane="61335135#0_0" departPos="5.10" departSpeed="0.00" departDelay="32.00" arrival="107.00" arrivalLane="34474997#6_1" arrivalPos="120.37" arrivalSpeed="27.60" duration="35.00" routeLength="554.31" waitSteps="0" rerouteNo="0" devices="vehroute_40 tripinfo_40" vType="DEFAULT_VEHTYPE" vaporized=""/>
    <tripinfo id="24" depart="24.00" departLane="-27617819#2_0" departPos="5.10" departSpeed="0.00" departDelay="0.00" arrival="109.00" arrivalLane="35901912#1_0" arrivalPos="24.70" arrivalSpeed="9.46" duration="85.00" routeLength="192.84" waitSteps="48" rerouteNo="0" devices="vehroute_24 tripinfo_24" vType="DEFAULT_VEHTYPE" vaporized=""/>
    <tripinfo id="32" depart="32.00" departLane="35901883#2_0" departPos="5.10" departSpeed="0.00" departDelay="0.00" arrival="113.00" arrivalLane="35902033#1_0" arrivalPos="60.41" arrivalSpeed="13.84" duration="81.00" routeLength="402.79" waitSteps="31" rerouteNo="0" devices="vehroute_32 tripinfo_32" vType="DEFAULT_VEHTYPE" vaporized=""/>
    <tripinfo id="92" depart="93.00" departLane="27617865#1_0" departPos="5.10" departSpeed="0.00" departDelay="1.00" arrival="115.00" arrivalLane="-35773427#0_0" arrivalPos="41.89" arrivalSpeed="12.77" duration="22.00" routeLength="176.05" waitSteps="0" rerouteNo="0" devices="vehroute_92 tripinfo_92" vType="DEFAULT_VEHTYPE" vaporized=""/>
    <tripinfo id="43" depart="43.00" departLane="30098185#1_0" departPos="5.10" departSpeed="0.00" departDelay="0.00" arrival="118.00" arrivalLane="30098184#1_0" arrivalPos="44.62" arrivalSpeed="12.74" duration="75.00" routeLength="293.52" waitSteps="39" rerouteNo="0" devices="vehroute_43 tripinfo_43" vType="DEFAULT_VEHTYPE" vaporized=""/>
    <tripinfo id="94" depart="94.00" departLane="35900338#0_0" departPos="5.10" departSpeed="0.00" departDelay="0.00" arrival="120.00" arrivalLane="-30098185#0_0" arrivalPos="33.89" arrivalSpeed="11.76" duration="26.00" routeLength="331.90" waitSteps="0" rerouteNo="0" devices="vehroute_94 tripinfo_94" vType="DEFAULT_VEHTYPE" vaporized=""/>
    <tripinfo id="107" depart="107.00" departLane="27131168#2_0" departPos="5.10" departSpeed="0.00" departDelay="0.00" arrival="127.00" arrivalLane="61279128#1_0" arrivalPos="110.05" arrivalSpeed="27.45" duration="20.00" routeLength="239.43" waitSteps="0" rerouteNo="0" devices="vehroute_107 tripinfo_107" vType="DEFAULT_VEHTYPE" vaporized=""/>
    <tripinfo id="30" depart="30.00" departLane="27617828#0_0" departPos="5.10" departSpeed="0.00" departDelay="0.00" arrival="134.00" arrivalLane="34474997#4_1" arrivalPos="33.45" arrivalSpeed="26.66" duration="104.00" routeLength="708.30" waitSteps="29" rerouteNo="0" devices="vehroute_30 tripinfo_30" vType="DEFAULT_VEHTYPE" vaporized=""/>
    <tripinfo id="65" depart="65.00" departLane="52491207_0" departPos="5.10" departSpeed="0.00" departDelay="0.00" arrival="135.00" arrivalLane="35900343#2_0" arrivalPos="133.31" arrivalSpeed="23.52" duration="70.00" routeLength="489.67" waitSteps="24" rerouteNo="0" devices="vehroute_65 tripinfo_65" vType="DEFAULT_VEHTYPE" vaporized=""/>
    <tripinfo id="61" depart="61.00" departLane="35901888#2_0" departPos="5.10" departSpeed="0.00" departDelay="0.00" arrival="137.00" arrivalLane="35901640#1_2" arrivalPos="44.02" arrivalSpeed="24.84" duration="76.00" routeLength="406.12" waitSteps="37" rerouteNo="0" devices="vehroute_61 tripinfo_61" vType="DEFAULT_VEHTYPE" vaporized=""/>
    <tripinfo id="35" depart="35.00" departLane="27617819#2_0" departPos="5.10" departSpeed="0.00" departDelay="0.00" arrival="138.00" arrivalLane="35903166#1_1" arrivalPos="36.60" arrivalSpeed="21.83" duration="103.00" routeLength="246.83" waitSteps="61" rerouteNo="0" devices="vehroute_35 tripinfo_35" vType="DEFAULT_VEHTYPE" vaporized=""/>
    <tripinfo id="98" depart="98.00" departLane="35900343#1_0" departPos="5.10" departSpeed="0.00" departDelay="0.00" arrival="138.00" arrivalLane="-35773427#5_0" arrivalPos="30.09" arrivalSpeed="12.69" duration="40.00" routeLength="150.70" waitSteps="21" rerouteNo="0" devices="vehroute_98 tripinfo_98" vType="DEFAULT_VEHTYPE" vaporized=""/>
    <tripinfo id="41" depart="41.00" departLane="27617860_0" departPos="5.10" departSpeed="0.00" departDelay="0.00" arrival="140.00" arrivalLane="23162032#2_1" arrivalPos="96.28" arrivalSpeed="27.41" duration="99.00" routeLength="690.68" waitSteps="43" rerouteNo="0" devices="vehroute_41 tripinfo_41" vType="DEFAULT_VEHTYPE" vaporized=""/>
    <tripinfo id="104" depart="104.00" departLane="35900338#0_0" departPos="5.10" departSpeed="0.00" departDelay="0.00" arrival="141.00" arrivalLane="-35773427#5_0" arrivalPos="30.09" arrivalSpeed="10.36" duration="37.00" routeLength="241.45" waitSteps="3" rerouteNo="0" devices="vehroute_104 tripinfo_104" vType="DEFAULT_VEHTYPE" vaporized=""/>
    <tripinfo id="25" depart="25.00" departLane="27617828#0_0" departPos="5.10" departSpeed="0.00" departDelay="0.00" arrival="141.00" arrivalLane="35773427#4_0" arrivalPos="44.50" arrivalSpeed="12.85" duration="116.00" routeLength="753.24" waitSteps="31" rerouteNo="0" devices="vehroute_25 tripinfo_25" vType="DEFAULT_VEHTYPE" vaporized=""/>
    <tripinfo id="133" depart="133.00" departLane="30098199#1_0" departPos="5.10" departSpeed="0.00" departDelay="0.00" arrival="142.00" arrivalLane="35903166#0_0" arrivalPos="37.50" arrivalSpeed="17.52" duration="9.00" routeLength="74.54" waitSteps="0" rerouteNo="0" devices="vehroute_133 tripinfo_133" vType="DEFAULT_VEHTYPE" vaporized=""/>
    <tripinfo id="84" depart="84.00" departLane="35901640#6_0" departPos="5.10" departSpeed="0.00" departDelay="0.00" arrival="143.00" arrivalLane="35900338#1_1" arrivalPos="283.36" arrivalSpeed="27.16" duration="59.00" routeLength="741.52" waitSteps="1" rerouteNo="0" devices="vehroute_84 tripinfo_84" vType="DEFAULT_VEHTYPE" vaporized=""/>
    <tripinfo id="21" depart="49.00" departLane="30098199#1_0" departPos="5.10" departSpeed="0.00" departDelay="28.00" arrival="143.00" arrivalLane="-27617865#2_0" arrivalPos="37.40" arrivalSpeed="12.87" duration="94.00" routeLength="670.85" waitSteps="27" rerouteNo="0" devices="vehroute_21 tripinfo_21" vType="DEFAULT_VEHTYPE" vaporized=""/>
    <tripinfo id="70" depart="81.00" departLane="27617819#3_0" departPos="5.10" departSpeed="0.00" departDelay="11.00" arrival="144.00" arrivalLane="35900343#1_1" arrivalPos="34.21" arrivalSpeed="27.06" duration="63.00" routeLength="460.47" waitSteps="25" rerouteNo="0" devices="vehroute_70 tripinfo_70" vType="DEFAULT_VEHTYPE" vaporized=""/>
    <tripinfo id="134" depart="134.00" departLane="27617850#0_0" departPos="5.10" departSpeed="0.00" departDelay="0.00" arrival="146.00" arrivalLane="27617850#1_0" arrivalPos="89.37" arrivalSpeed="13.38" duration="12.00" routeLength="112.42" waitSteps="0" rerouteNo="0" devices="vehroute_134 tripinfo_134" vType="DEFAULT_VEHTYPE" vaporized=""/>
    <tripinfo id="26" depart="96.00" departLane="-27617819#0_0" departPos="5.10" departSpeed="0.00" departDelay="70.00" arrival="148.00" arrivalLane="-27617850#4_0" arrivalPos="54.50" arrivalSpeed="12.77" duration="52.00" routeLength="277.85" waitSteps="20" rerouteNo="0" devices="vehroute_26 tripinfo_26" vType="DEFAULT_VEHTYPE" vaporized=""/>
    <tripinfo id="63" depart="63.00" departLane="30098199#2_0" departPos="3.87" departSpeed="0.00" departDelay="0.00" arrival="153.00" arrivalLane="35901888#1_0" arrivalPos="135.45" arrivalSpeed="13.49" duration="90.00" routeLength="586.03" waitSteps="10" rerouteNo="0" devices="vehroute_63 tripinfo_63" vType="DEFAULT_VEHTYPE" vaporized=""/>
    <tripinfo id="64" depart="64.00" departLane="35901826_0" departPos="5.10" departSpeed="0.00" departDelay="0.00" arrival="155.00" arrivalLane="27131168#3_2" arrivalPos="28.50" arrivalSpeed="12.03" duration="91.00" routeLength="491.55" waitSteps="44" rerouteNo="0" devices="vehroute_64 tripinfo_64" vType="DEFAULT_VEHTYPE" vaporized=""/>
    <tripinfo id="128" depart="128.00" departLane="23162032#5_0" departPos="5.10" departSpeed="0.00" departDelay="0.00" arrival="158.00" arrivalLane="30098185#1_0" arrivalPos="73.80" arrivalSpeed="13.46" duration="30.00" routeLength="323.40" waitSteps="0" rerouteNo="0" devices="vehroute_128 tripinfo_128" vType="DEFAULT_VEHTYPE" vaporized=""/>
    <tripinfo id="122" depart="122.00" departLane="-35773427#0_0" departPos="5.10" departSpeed="0.00" departDelay="0.00" arrival="159.00" arrivalLane="35901883#4_0" arrivalPos="31.53" arrivalSpeed="13.38" duration="37.00" routeLength="294.03" waitSteps="0" rerouteNo="0" devices="vehroute_122 tripinfo_122" vType="DEFAULT_VEHTYPE" vaporized=""/>
    <tripinfo id="31" depart="31.00" departLane="35901888#3_0" departPos="5.10" departSpeed="0.00" departDelay="0.00" arrival="162.00" arrivalLane="-30098185#3_0" arrivalPos="95.61" arrivalSpeed="13.61" duration="131.00" routeLength="357.08" waitSteps="91" rerouteNo="0" devices="vehroute_31 tripinfo_31" vType="DEFAULT_VEHTYPE" vaporized=""/>
    <tripinfo id="132" depart="132.00" departLane="35901826_0" departPos="5.10" departSpeed="0.00" departDelay="0.00" arrival="164.00" arrivalLane="35900338#2_1" arrivalPos="104.63" arrivalSpeed="22.15" duration="32.00" routeLength="396.90" waitSteps="0" rerouteNo="0" devices="vehroute_132 tripinfo_132" vType="DEFAULT_VEHTYPE" vaporized=""/>
    <tripinfo id="44" depart="44.00" departLane="-27617865#2_0" departPos="5.10" departSpeed="0.00" departDelay="0.00" arrival="165.00" arrivalLane="35903166#1_1" arrivalPos="36.60" arrivalSpeed="13.47" duration="121.00" routeLength="643.09" waitSteps="28" rerouteNo="0" devices="vehroute_44 tripinfo_44" vType="DEFAULT_VEHTYPE" vaporized=""/>
    <tripinfo id="66" depart="68.00" departLane="35773427#5_0" departPos="5.10" departSpeed="0.00" departDelay="2.00" arrival="166.00" arrivalLane="-27617819#1_0" arrivalPos="40.38" arrivalSpeed="12.58" duration="98.00" routeLength="330.68" waitSteps="55" rerouteNo="0" devices="vehroute_66 tripinfo_66" vType="DEFAULT_VEHTYPE" vaporized=""/>
    <tripinfo id="48" depart="70.00" departLane="35901912#1_0" departPos="5.10" departSpeed="0.00" departDelay="22.00" arrival="167.00" arrivalLane="-30098185#3_0" arrivalPos="95.61" arrivalSpeed="13.00" duration="97.00" routeLength="249.34" waitSteps="63" rerouteNo="0" devices="vehroute_48 tripinfo_48" vType="DEFAULT_VEHTYPE" vaporized=""/>
    <tripinfo id="116" depart="116.00" departLane="35902125#4_0" departPos="5.10" departSpeed="0.00" departDelay="0.00" arrival="168.00" arrivalLane="-27617819#1_0" arrivalPos="40.38" arrivalSpeed="13.06" duration="52.00" routeLength="449.89" waitSteps="3" rerouteNo="0" devices="vehroute_116 tripinfo_116" vType="DEFAULT_VEHTYPE" vaporized=""/>
    <tripinfo id="77" depart="77.00" departLane="30098199#0_0" departPos="5.10" departSpeed="0.00" departDelay="0.00" arrival="170.00" arrivalLane="35901833#0_1" arrivalPos="129.62" arrivalSpeed="23.09" duration="93.00" routeLength="967.33" waitSteps="5" rerouteNo="0" devices="vehroute_77 tripinfo_77" vType="DEFAULT_VEHTYPE" vaporized=""/>
    <tripinfo id="50" depart="50.00" departLane="35902651#0_0" departPos="5.10" departSpeed="0.00" departDelay="0.00" arrival="171.00" arrivalLane="27131168#3_3" arrivalPos="28.50" arrivalSpeed="26.81" duration="121.00" routeLength="531.66" waitSteps="51" rerouteNo="0" devices="vehroute_50 tripinfo_50" vType="DEFAULT_VEHTYPE" vaporized=""/>
    <tripinfo id="6" depart="6.00" departLane="35773427#3_0" departPos="5.10" departSpeed="0.00" departDelay="0.00" arrival="171.00" arrivalLane="-27617819#1_0" arrivalPos="40.38" arrivalSpeed="13.40" duration="165.00" routeLength="336.29" waitSteps="114" rerouteNo="0" devices="vehroute_6 tripinfo_6" vType="DEFAULT_VEHTYPE" vaporized=""/>
    <tripinfo id="8" depart="8.00" departLane="-35901912#0_0" departPos="5.10" departSpeed="0.00" departDelay="0.00" arrival="171.00" arrivalLane="35902033#1_0" arrivalPos="60.41" arrivalSpeed="12.89" duration="163.00" routeLength="413.99" waitSteps="110" rerouteNo="0" devices="vehroute_8 tripinfo_8" vType="DEFAULT_VEHTYPE" vaporized=""/>
    <tripinfo id="143" depart="143.00" departLane="-35900161_0" departPos="5.10" departSpeed="0.00" departDelay="0.00" arrival="172.00" arrivalLane="35773427#6_0" arrivalPos="44.77" arrivalSpeed="7.87" duration="29.00" routeLength="142.82" waitSteps="1" rerouteNo="0" devices="vehroute_143 tripinfo_143" vType="DEFAULT_VEHTYPE" vaporized=""/>
    <tripinfo id="42" depart="42.00" departLane="35782161#0_0" departPos="5.10" departSpeed="0.00" departDelay="0.00" arrival="172.00" arrivalLane="35902125#4_0" arrivalPos="43.85" arrivalSpeed="13.13" duration="130.00" routeLength="473.14" waitSteps="81" rerouteNo="0" devices="vehroute_42 tripinfo_42" vType="DEFAULT_VEHTYPE" vaporized=""/>
    <tripinfo id="74" depart="74.00" departLane="61279142#0_0" departPos="5.10" departSpeed="0.00" departDelay="0.00" arrival="173.00" arrivalLane="34474997#3_1" arrivalPos="49.78" arrivalSpeed="21.87" duration="99.00" routeLength="614.90" waitSteps="16" rerouteNo="0" devices="vehroute_74 tripinfo_74" vType="DEFAULT_VEHTYPE" vaporized=""/>
    <tripinfo id="38" depart="41.00" departLane="-35773427#7_0" departPos="5.10" departSpeed="0.00" departDelay="3.00" arrival="173.00" arrivalLane="61335135#2_0" arrivalPos="105.53" arrivalSpeed="13.27" duration="132.00" routeLength="623.49" waitSteps="51" rerouteNo="0" devices="vehroute_38 tripinfo_38" vType="DEFAULT_VEHTYPE" vaporized=""/>
    <tripinfo id="55" depart="55.00" departLane="27617860_0" departPos="5.10" departSpeed="0.00" departDelay="0.00" arrival="173.00" arrivalLane="-35773427#6_0" arrivalPos="44.77" arrivalSpeed="13.49" duration="118.00" routeLength="469.80" waitSteps="53" rerouteNo="0" devices="vehroute_55 tripinfo_55" vType="DEFAULT_VEHTYPE" vaporized=""/>
    <tripinfo id="36" depart="38.00" departLane="27617819#2_0" departPos="5.10" departSpeed="0.00" departDelay="2.00" arrival="174.00" arrivalLane="35903288#1_1" arrivalPos="38.02" arrivalSpeed="27.44" duration="136.00" routeLength="351.86" waitSteps="84" rerouteNo="0" devices="vehroute_36 tripinfo_36" vType="DEFAULT_VEHTYPE" vaporized=""/>
    <tripinfo id="118" depart="151.00" departLane="23162032#4_0" departPos="5.10" departSpeed="0.00" departDelay="33.00" arrival="174.00" arrivalLane="23162032#7_0" arrivalPos="158.04" arrivalSpeed="27.61" duration="23.00" routeLength="413.05" waitSteps="0" rerouteNo="0" devices="vehroute_118 tripinfo_118" vType="DEFAULT_VEHTYPE" vaporized=""/>
    <tripinfo id="53" depart="54.00" departLane="30098185#0_0" departPos="5.10" departSpeed="0.00" departDelay="1.00" arrival="175.00" arrivalLane="30098199#2-AddedOffRampEdge_1" arrivalPos="106.63" arrivalSpeed="23.43" duration="121.00" routeLength="593.87" waitSteps="33" rerouteNo="0" devices="vehroute_53 tripinfo_53" vType="DEFAULT_VEHTYPE" vaporized=""/>
    <tripinfo id="51" depart="51.00" departLane="30098185#0_0" departPos="5.10" departSpeed="0.00" departDelay="0.00" arrival="175.00" arrivalLane="61335135#2_0" arrivalPos="105.53" arrivalSpeed="12.70" duration="124.00" routeLength="730.01" waitSteps="23" rerouteNo="0" devices="vehroute_51 tripinfo_51" vType="DEFAULT_VEHTYPE" vaporized=""/>
    <tripinfo id="150" depart="150.00" departLane="35900343#1_0" departPos="5.10" departSpeed="0.00" departDelay="0.00" arrival="175.00" arrivalLane="-35773427#4_0" arrivalPos="44.50" arrivalSpeed="12.62" duration="25.00" routeLength="195.20" waitSteps="1" rerouteNo="0" devices="vehroute_150 tripinfo_150" vType="DEFAULT_VEHTYPE" vaporized=""/>
    <tripinfo id="71" depart="73.00" departLane="35901883#0_0" departPos="5.10" departSpeed="0.00" departDelay="2.00" arrival="176.00" arrivalLane="35902564#0_0" arrivalPos="97.46" arrivalSpeed="13.07" duration="103.00" routeLength="250.94" waitSteps="65" rerouteNo="0" devices="vehroute_71 tripinfo_71" vType="DEFAULT_VEHTYPE" vaporized=""/>
    <tripinfo id="2" depart="2.00" departLane="35903288#0_0" departPos="5.10" departSpeed="0.00" departDelay="0.00" arrival="178.00" arrivalLane="-27617850#0_0" arrivalPos="28.15" arrivalSpeed="12.17" duration="176.00" routeLength="740.66" waitSteps="79" rerouteNo="0" devices="vehroute_2 tripinfo_2" vType="DEFAULT_VEHTYPE" vaporized=""/>
    <tripinfo id="79" depart="79.00" departLane="35773427#5_0" departPos="5.10" departSpeed="0.00" departDelay="0.00" arrival="179.00" arrivalLane="35901640#2_0" arrivalPos="23.76" arrivalSpeed="22.47" duration="100.00" routeLength="597.77" waitSteps="38" rerouteNo="0" devices="vehroute_79 tripinfo_79" vType="DEFAULT_VEHTYPE" vaporized=""/>
    <tripinfo id="81" depart="81.00" departLane="35900343#0_0" departPos="5.10" departSpeed="0.00" departDelay="0.00" arrival="180.00" arrivalLane="35901833#0_0" arrivalPos="129.62" arrivalSpeed="26.66" duration="99.00" routeLength="581.10" waitSteps="45" rerouteNo="0" devices="vehroute_81 tripinfo_81" vType="DEFAULT_VEHTYPE" vaporized=""/>
    <tripinfo id="137" depart="161.00" departLane="-30098184#1_0" departPos="5.10" departSpeed="0.00" departDelay="24.00" arrival="181.00" arrivalLane="35902564#1_0" arrivalPos="134.32" arrivalSpeed="13.12" duration="20.00" routeLength="173.84" waitSteps="0" rerouteNo="0" devices="vehroute_137 tripinfo_137" vType="DEFAULT_VEHTYPE" vaporized=""/>
    <tripinfo id="49" depart="49.00" departLane="30098184#3_0" departPos="5.10" departSpeed="0.00" departDelay="0.00" arrival="181.00" arrivalLane="-35773427#7_0" arrivalPos="46.73" arrivalSpeed="13.08" duration="132.00" routeLength="383.53" waitSteps="78" rerouteNo="0" devices="vehroute_49 tripinfo_49" vType="DEFAULT_VEHTYPE" vaporized=""/>
    <tripinfo id="166" depart="166.00" departLane="34474997#3_0" departPos="5.10" departSpeed="0.00" departDelay="0.00" arrival="181.00" arrivalLane="-35773427#3_0" arrivalPos="29.44" arrivalSpeed="13.35" duration="15.00" routeLength="108.01" waitSteps="0" rerouteNo="0" devices="vehroute_166 tripinfo_166" vType="DEFAULT_VEHTYPE" vaporized=""/>
    <tripinfo id="99" depart="99.00" departLane="35782161#0_0" departPos="5.10" departSpeed="0.00" departDelay="0.00" arrival="182.00" arrivalLane="35773427#1_0" arrivalPos="57.21" arrivalSpeed="13.40" duration="83.00" routeLength="600.69" waitSteps="22" rerouteNo="0" devices="vehroute_99 tripinfo_99" vType="DEFAULT_VEHTYPE" vaporized=""/>
    <tripinfo id="1" depart="1.00" departLane="35902033#1_0" departPos="5.10" departSpeed="0.00" departDelay="0.00" arrival="186.00" arrivalLane="35901883#0_0" arrivalPos="76.87" arrivalSpeed="13.31" duration="185.00" routeLength="501.84" waitSteps="120" rerouteNo="0" devices="vehroute_1 tripinfo_1" vType="DEFAULT_VEHTYPE" vaporized=""/>
    <tripinfo id="131" depart="163.00" departLane="30098184#2_0" departPos="5.10" departSpeed="0.00" departDelay="32.00" arrival="191.00" arrivalLane="35773427#4_0" arrivalPos="44.50" arrivalSpeed="13.55" duration="28.00" routeLength="248.78" waitSteps="0" rerouteNo="0" devices="vehroute_131 tripinfo_131" vType="DEFAULT_VEHTYPE" vaporized=""/>
    <tripinfo id="45" depart="45.00" departLane="-27617850#0_0" departPos="5.10" departSpeed="0.00" departDelay="0.00" arrival="193.00" arrivalLane="30098199#4_0" arrivalPos="95.13" arrivalSpeed="5.81" duration="148.00" routeLength="850.73" waitSteps="28" rerouteNo="0" devices="vehroute_45 tripinfo_45" vType="DEFAULT_VEHTYPE" vaporized=""/>
    <tripinfo id="39" depart="70.00" departLane="-35901912#0_0" departPos="5.10" departSpeed="0.00" departDelay="31.00" arrival="194.00" arrivalLane="-27617865#1_0" arrivalPos="82.05" arrivalSpeed="6.81" duration="124.00" routeLength="548.10" waitSteps="48" rerouteNo="0" devices="vehroute_39 tripinfo_39" vType="DEFAULT_VEHTYPE" vaporized=""/>
    <tripinfo id="20" depart="20.00" departLane="35902125#3_0" departPos="5.10" departSpeed="0.00" departDelay="0.00" arrival="195.00" arrivalLane="30098199#1_1" arrivalPos="42.14" arrivalSpeed="19.45" duration="175.00" routeLength="694.07" waitSteps="103" rerouteNo="0" devices="vehroute_20 tripinfo_20" vType="DEFAULT_VEHTYPE" vaporized=""/>
    <tripinfo id="180" depart="180.00" departLane="27617819#0_0" departPos="5.10" departSpeed="0.00" departDelay="0.00" arrival="195.00" arrivalLane="27617819#3_0" arrivalPos="48.96" arrivalSpeed="13.28" duration="15.00" routeLength="147.41" waitSteps="0" rerouteNo="0" devices="vehroute_180 tripinfo_180" vType="DEFAULT_VEHTYPE" vaporized=""/>
    <tripinfo id="52" depart="52.00" departLane="35902785#0_0" departPos="5.10" departSpeed="0.00" departDelay="0.00" arrival="197.00" arrivalLane="61279128#1_0" arrivalPos="110.05" arrivalSpeed="25.74" duration="145.00" routeLength="913.74" waitSteps="36" rerouteNo="0" devices="vehroute_52 tripinfo_52" vType="DEFAULT_VEHTYPE" vaporized=""/>
    <tripinfo id="95" depart="112.00" departLane="27617819#1_0" departPos="5.10" departSpeed="0.00" departDelay="17.00" arrival="199.00" arrivalLane="35773427#5_0" arrivalPos="30.09" arrivalSpeed="13.09" duration="87.00" routeLength="299.23" waitSteps="42" rerouteNo="0" devices="vehroute_95 tripinfo_95" vType="DEFAULT_VEHTYPE" vaporized=""/>
    <tripinfo id="127" depart="127.00" departLane="35773427#7_0" departPos="5.10" departSpeed="0.00" departDelay="0.00" arrival="204.00" arrivalLane="-27617850#1_0" arrivalPos="89.37" arrivalSpeed="13.38" duration="77.00" routeLength="548.41" waitSteps="23" rerouteNo="0" devices="vehroute_127 tripinfo_127" vType="DEFAULT_VEHTYPE" vaporized=""/>