<?xml version="1.0" encoding="UTF-8"?>

<!-- generated on Wed 21 May 2014 05:28:41 PM AST by SUMO gui Version 0.18.0
<?xml version="1.0" encoding="UTF-8"?>

<configuration xmlns:xsi="http://www.w3.org/2001/XMLSchema-instance" xsi:noNamespaceSchemaLocation="http://sumo.sf.net/xsd/sumo-gui.exeConfiguration.xsd">

    <input>
        <net-file value="malaga-alameda/40/alameda.net.xml"/>
        <route-files value="malaga-alameda/40/alameda.500.rou.xml"/>
        <additional-files value="malaga-alameda/40/tl-logic.add.xml"/>
    </input>

    <output>
        <summary-output value="malaga-alameda/40/output-emissions.xml"/>
        <tripinfo-output value="malaga-alameda/40/output-tripinfos.xml"/>
        <vehroute-output value="malaga-alameda/40/output-vehroutes.xml"/>
        <save-state.prefix value="malaga-alameda/40/state"/>
    </output>

    <time>
        <begin value="0"/>
        <end value="5000"/>
    </time>

    <processing>
        <route-steps value="-1"/>
        <time-to-teleport value="-1"/>
    </processing>

    <random_number>
        <seed value="23423"/>
    </random_number>

</configuration>
-->

<summary>
    <step time="0.00" loaded="480" emitted="1" running="1" waiting="0" ended="0" meanWaitingTime="0.00" meanTravelTime="-1.00" duration="0" />
    <step time="1.00" loaded="480" emitted="2" running="2" waiting="0" ended="0" meanWaitingTime="0.00" meanTravelTime="-1.00" duration="0" />
    <step time="2.00" loaded="480" emitted="3" running="3" waiting="0" ended="0" meanWaitingTime="0.00" meanTravelTime="-1.00" duration="0" />
    <step time="3.00" loaded="480" emitted="4" running="4" waiting="0" ended="0" meanWaitingTime="0.00" meanTravelTime="-1.00" duration="0" />
    <step time="4.00" loaded="480" emitted="5" running="5" waiting="0" ended="0" meanWaitingTime="0.00" meanTravelTime="-1.00" duration="0" />
    <step time="5.00" loaded="480" emitted="6" running="6" waiting="0" ended="0" meanWaitingTime="0.00" meanTravelTime="-1.00" duration="0" />
    <step time="6.00" loaded="480" emitted="7" running="7" waiting="0" ended="0" meanWaitingTime="0.00" meanTravelTime="-1.00" duration="0" />
    <step time="7.00" loaded="480" emitted="8" running="8" waiting="0" ended="0" meanWaitingTime="0.00" meanTravelTime="-1.00" duration="1" />
    <step time="8.00" loaded="480" emitted="9" running="9" waiting="0" ended="0" meanWaitingTime="0.00" meanTravelTime="-1.00" duration="0" />
    <step time="9.00" loaded="480" emitted="10" running="10" waiting="0" ended="0" meanWaitingTime="0.00" meanTravelTime="-1.00" duration="0" />
    <step time="10.00" loaded="480" emitted="11" running="11" waiting="0" ended="0" meanWaitingTime="0.00" meanTravelTime="-1.00" duration="0" />
    <step time="11.00" loaded="480" emitted="12" running="12" waiting="0" ended="0" meanWaitingTime="0.00" meanTravelTime="-1.00" duration="0" />
    <step time="12.00" loaded="480" emitted="13" running="13" waiting="0" ended="0" meanWaitingTime="0.00" meanTravelTime="-1.00" duration="0" />
    <step time="13.00" loaded="480" emitted="14" running="14" waiting="0" ended="0" meanWaitingTime="0.00" meanTravelTime="-1.00" duration="0" />
    <step time="14.00" loaded="480" emitted="14" running="14" waiting="1" ended="0" meanWaitingTime="0.00" meanTravelTime="-1.00" duration="1" />
    <step time="15.00" loaded="480" emitted="16" running="16" waiting="0" ended="0" meanWaitingTime="0.06" meanTravelTime="-1.00" duration="0" />
    <step time="16.00" loaded="480" emitted="17" running="17" waiting="0" ended="0" meanWaitingTime="0.06" meanTravelTime="-1.00" duration="0" />
    <step time="17.00" loaded="480" emitted="18" running="18" waiting="0" ended="0" meanWaitingTime="0.06" meanTravelTime="-1.00" duration="0" />
    <step time="18.00" loaded="480" emitted="18" running="18" waiting="0" ended="0" meanWaitingTime="0.06" meanTravelTime="-1.00" duration="1" />
    <step time="19.00" loaded="480" emitted="19" running="19" waiting="0" ended="0" meanWaitingTime="0.05" meanTravelTime="-1.00" duration="0" />
    <step time="20.00" loaded="480" emitted="20" running="20" waiting="0" ended="0" meanWaitingTime="0.05" meanTravelTime="-1.00" duration="0" />
    <step time="21.00" loaded="480" emitted="20" running="20" waiting="1" ended="0" meanWaitingTime="0.05" meanTravelTime="-1.00" duration="0" />
    <step time="22.00" loaded="480" emitted="21" running="21" waiting="1" ended="0" meanWaitingTime="0.05" meanTravelTime="-1.00" duration="0" />
    <step time="23.00" loaded="480" emitted="21" running="21" waiting="1" ended="0" meanWaitingTime="0.05" meanTravelTime="-1.00" duration="0" />
    <step time="24.00" loaded="480" emitted="22" running="21" waiting="1" ended="1" meanWaitingTime="0.05" meanTravelTime="15.00" duration="1" />
    <step time="25.00" loaded="480" emitted="23" running="22" waiting="1" ended="1" meanWaitingTime="0.04" meanTravelTime="15.00" duration="0" />
    <step time="26.00" loaded="480" emitted="23" running="22" waiting="2" ended="1" meanWaitingTime="0.04" meanTravelTime="15.00" duration="0" />
    <step time="27.00" loaded="480" emitted="24" running="23" waiting="2" ended="1" meanWaitingTime="0.04" meanTravelTime="15.00" duration="1" />
    <step time="28.00" loaded="480" emitted="25" running="24" waiting="2" ended="1" meanWaitingTime="0.04" meanTravelTime="15.00" duration="0" />
    <step time="29.00" loaded="480" emitted="26" running="25" waiting="2" ended="1" meanWaitingTime="0.04" meanTravelTime="15.00" duration="0" />
    <step time="30.00" loaded="480" emitted="27" running="25" waiting="2" ended="2" meanWaitingTime="0.04" meanTravelTime="16.00" duration="1" />
    <step time="31.00" loaded="480" emitted="28" running="26" waiting="2" ended="2" meanWaitingTime="0.04" meanTravelTime="16.00" duration="0" />
    <step time="32.00" loaded="480" emitted="29" running="27" waiting="2" ended="2" meanWaitingTime="0.03" meanTravelTime="16.00" duration="0" />
    <step time="33.00" loaded="480" emitted="30" running="28" waiting="2" ended="2" meanWaitingTime="0.03" meanTravelTime="16.00" duration="0" />
    <step time="34.00" loaded="480" emitted="31" running="28" waiting="2" ended="3" meanWaitingTime="0.03" meanTravelTime="20.67" duration="0" />
    <step time="35.00" loaded="480" emitted="32" running="29" waiting="2" ended="3" meanWaitingTime="0.03" meanTravelTime="20.67" duration="1" />
    <step time="36.00" loaded="480" emitted="32" running="29" waiting="3" ended="3" meanWaitingTime="0.03" meanTravelTime="20.67" duration="0" />
    <step time="37.00" loaded="480" emitted="32" running="29" waiting="4" ended="3" meanWaitingTime="0.03" meanTravelTime="20.67" duration="0" />
    <step time="38.00" loaded="480" emitted="33" running="30" waiting="4" ended="3" meanWaitingTime="0.09" meanTravelTime="20.67" duration="1" />
    <step time="39.00" loaded="480" emitted="33" running="30" waiting="5" ended="3" meanWaitingTime="0.09" meanTravelTime="20.67" duration="0" />
    <step time="40.00" loaded="480" emitted="33" running="30" waiting="6" ended="3" meanWaitingTime="0.09" meanTravelTime="20.67" duration="1" />
    <step time="41.00" loaded="480" emitted="36" running="33" waiting="4" ended="3" meanWaitingTime="0.28" meanTravelTime="20.67" duration="0" />
    <step time="42.00" loaded="480" emitted="37" running="34" waiting="4" ended="3" meanWaitingTime="0.27" meanTravelTime="20.67" duration="1" />
    <step time="43.00" loaded="480" emitted="38" running="35" waiting="4" ended="3" meanWaitingTime="0.26" meanTravelTime="20.67" duration="0" />
    <step time="44.00" loaded="480" emitted="39" running="36" waiting="4" ended="3" meanWaitingTime="0.26" meanTravelTime="20.67" duration="1" />
    <step time="45.00" loaded="480" emitted="40" running="37" waiting="4" ended="3" meanWaitingTime="0.25" meanTravelTime="20.67" duration="0" />
    <step time="46.00" loaded="480" emitted="40" running="37" waiting="5" ended="3" meanWaitingTime="0.25" meanTravelTime="20.67" duration="1" />
    <step time="47.00" loaded="480" emitted="41" running="37" waiting="5" ended="4" meanWaitingTime="0.24" meanTravelTime="24.50" duration="0" />
    <step time="48.00" loaded="480" emitted="41" running="37" waiting="6" ended="4" meanWaitingTime="0.24" meanTravelTime="24.50" duration="1" />
    <step time="49.00" loaded="480" emitted="44" running="40" waiting="4" ended="4" meanWaitingTime="0.93" meanTravelTime="24.50" duration="0" />
    <step time="50.00" loaded="480" emitted="45" running="41" waiting="4" ended="4" meanWaitingTime="0.91" meanTravelTime="24.50" duration="1" />
    <step time="51.00" loaded="480" emitted="46" running="41" waiting="4" ended="5" meanWaitingTime="0.89" meanTravelTime="26.40" duration="0" />
    <step time="52.00" loaded="480" emitted="47" running="41" waiting="4" ended="6" meanWaitingTime="0.87" meanTravelTime="26.17" duration="1" />
    <step time="53.00" loaded="480" emitted="47" running="41" waiting="5" ended="6" meanWaitingTime="0.87" meanTravelTime="26.17" duration="1" />
    <step time="54.00" loaded="480" emitted="49" running="43" waiting="4" ended="6" meanWaitingTime="0.86" meanTravelTime="26.17" duration="0" />
    <step time="55.00" loaded="480" emitted="50" running="44" waiting="4" ended="6" meanWaitingTime="0.84" meanTravelTime="26.17" duration="1" />
    <step time="56.00" loaded="480" emitted="50" running="44" waiting="4" ended="6" meanWaitingTime="0.84" meanTravelTime="26.17" duration="0" />
    <step time="57.00" loaded="480" emitted="51" running="45" waiting="4" ended="6" meanWaitingTime="0.82" meanTravelTime="26.17" duration="1" />
    <step time="58.00" loaded="480" emitted="51" running="45" waiting="5" ended="6" meanWaitingTime="0.82" meanTravelTime="26.17" duration="0" />
    <step time="59.00" loaded="480" emitted="52" running="46" waiting="5" ended="6" meanWaitingTime="0.81" meanTravelTime="26.17" duration="1" />
    <step time="60.00" loaded="480" emitted="53" running="47" waiting="5" ended="6" meanWaitingTime="0.79" meanTravelTime="26.17" duration="0" />
    <step time="61.00" loaded="480" emitted="55" running="49" waiting="4" ended="6" meanWaitingTime="0.82" meanTravelTime="26.17" duration="1" />
    <step time="62.00" loaded="480" emitted="56" running="50" waiting="4" ended="6" meanWaitingTime="0.80" meanTravelTime="26.17" duration="0" />
    <step time="63.00" loaded="480" emitted="57" running="51" waiting="4" ended="6" meanWaitingTime="0.79" meanTravelTime="26.17" duration="1" />
    <step time="64.00" loaded="480" emitted="58" running="52" waiting="4" ended="6" meanWaitingTime="0.78" meanTravelTime="26.17" duration="0" />
    <step time="65.00" loaded="480" emitted="59" running="53" waiting="4" ended="6" meanWaitingTime="0.76" meanTravelTime="26.17" duration="1" />
    <step time="66.00" loaded="480" emitted="59" running="53" waiting="5" ended="6" meanWaitingTime="0.76" meanTravelTime="26.17" duration="0" />
    <step time="67.00" loaded="480" emitted="60" running="53" waiting="5" ended="7" meanWaitingTime="0.75" meanTravelTime="23.43" duration="1" />
    <step time="68.00" loaded="480" emitted="62" running="55" waiting="4" ended="7" meanWaitingTime="0.76" meanTravelTime="23.43" duration="0" />
    <step time="69.00" loaded="480" emitted="62" running="55" waiting="5" ended="7" meanWaitingTime="0.76" meanTravelTime="23.43" duration="0" />
    <step time="70.00" loaded="480" emitted="64" running="57" waiting="4" ended="7" meanWaitingTime="1.56" meanTravelTime="23.43" duration="0" />
    <step time="71.00" loaded="480" emitted="64" running="56" waiting="5" ended="8" meanWaitingTime="1.56" meanTravelTime="23.25" duration="0" />
    <step time="72.00" loaded="480" emitted="65" running="57" waiting="4" ended="8" meanWaitingTime="2.03" meanTravelTime="23.25" duration="1" />
    <step time="73.00" loaded="480" emitted="67" running="59" waiting="3" ended="8" meanWaitingTime="2.00" meanTravelTime="23.25" duration="0" />
    <step time="74.00" loaded="480" emitted="68" running="60" waiting="3" ended="8" meanWaitingTime="1.97" meanTravelTime="23.25" duration="1" />
    <step time="75.00" loaded="480" emitted="69" running="61" waiting="3" ended="8" meanWaitingTime="1.94" meanTravelTime="23.25" duration="0" />
    <step time="76.00" loaded="480" emitted="70" running="62" waiting="3" ended="8" meanWaitingTime="1.91" meanTravelTime="23.25" duration="1" />
    <step time="77.00" loaded="480" emitted="71" running="63" waiting="3" ended="8" meanWaitingTime="1.89" meanTravelTime="23.25" duration="0" />
    <step time="78.00" loaded="480" emitted="72" running="64" waiting="3" ended="8" meanWaitingTime="1.86" meanTravelTime="23.25" duration="1" />
    <step time="79.00" loaded="480" emitted="73" running="65" waiting="3" ended="8" meanWaitingTime="1.84" meanTravelTime="23.25" duration="0" />
    <step time="80.00" loaded="480" emitted="74" running="63" waiting="3" ended="11" meanWaitingTime="1.81" meanTravelTime="29.00" duration="1" />
    <step time="81.00" loaded="480" emitted="76" running="65" waiting="2" ended="11" meanWaitingTime="1.91" meanTravelTime="29.00" duration="1" />
    <step time="82.00" loaded="480" emitted="76" running="65" waiting="3" ended="11" meanWaitingTime="1.91" meanTravelTime="29.00" duration="1" />
    <step time="83.00" loaded="480" emitted="77" running="66" waiting="3" ended="11" meanWaitingTime="1.88" meanTravelTime="29.00" duration="0" />
    <step time="84.00" loaded="480" emitted="78" running="67" waiting="3" ended="11" meanWaitingTime="1.86" meanTravelTime="29.00" duration="0" />
    <step time="85.00" loaded="480" emitted="78" running="67" waiting="4" ended="11" meanWaitingTime="1.86" meanTravelTime="29.00" duration="0" />
    <step time="86.00" loaded="480" emitted="79" running="68" waiting="4" ended="11" meanWaitingTime="1.84" meanTravelTime="29.00" duration="1" />
    <step time="87.00" loaded="480" emitted="80" running="68" waiting="4" ended="12" meanWaitingTime="1.81" meanTravelTime="29.33" duration="0" />
    <step time="88.00" loaded="480" emitted="81" running="69" waiting="4" ended="12" meanWaitingTime="1.79" meanTravelTime="29.33" duration="1" />
    <step time="89.00" loaded="480" emitted="82" running="70" waiting="4" ended="12" meanWaitingTime="1.77" meanTravelTime="29.33" duration="1" />
    <step time="90.00" loaded="480" emitted="83" running="71" waiting="4" ended="12" meanWaitingTime="1.75" meanTravelTime="29.33" duration="0" />
    <step time="91.00" loaded="480" emitted="84" running="72" waiting="4" ended="12" meanWaitingTime="1.73" meanTravelTime="29.33" duration="1" />
    <step time="92.00" loaded="480" emitted="84" running="72" waiting="5" ended="12" meanWaitingTime="1.73" meanTravelTime="29.33" duration="0" />
    <step time="93.00" loaded="480" emitted="85" running="72" waiting="5" ended="13" meanWaitingTime="1.72" meanTravelTime="34.23" duration="1" />
    <step time="94.00" loaded="480" emitted="86" running="73" waiting="5" ended="13" meanWaitingTime="1.70" meanTravelTime="34.23" duration="0" />
    <step time="95.00" loaded="480" emitted="86" running="72" waiting="6" ended="14" meanWaitingTime="1.70" meanTravelTime="35.21" duration="0" />
    <step time="96.00" loaded="480" emitted="89" running="75" waiting="4" ended="14" meanWaitingTime="2.46" meanTravelTime="35.21" duration="1" />
    <step time="97.00" loaded="480" emitted="90" running="76" waiting="4" ended="14" meanWaitingTime="2.43" meanTravelTime="35.21" duration="1" />
    <step time="98.00" loaded="480" emitted="91" running="75" waiting="4" ended="16" meanWaitingTime="2.41" meanTravelTime="38.88" duration="0" />
    <step time="99.00" loaded="480" emitted="92" running="76" waiting="4" ended="16" meanWaitingTime="2.38" meanTravelTime="38.88" duration="1" />
    <step time="100.00" loaded="480" emitted="93" running="76" waiting="4" ended="17" meanWaitingTime="2.35" meanTravelTime="37.76" duration="1" />
    <step time="101.00" loaded="480" emitted="94" running="74" waiting="4" ended="20" meanWaitingTime="2.33" meanTravelTime="39.20" duration="0" />
    <step time="102.00" loaded="480" emitted="94" running="74" waiting="4" ended="20" meanWaitingTime="2.33" meanTravelTime="39.20" duration="1" />
    <step time="103.00" loaded="480" emitted="94" running="74" waiting="5" ended="20" meanWaitingTime="2.33" meanTravelTime="39.20" duration="1" />
    <step time="104.00" loaded="480" emitted="95" running="74" waiting="5" ended="21" meanWaitingTime="2.31" meanTravelTime="40.67" duration="0" />
    <step time="105.00" loaded="480" emitted="96" running="74" waiting="5" ended="22" meanWaitingTime="2.28" meanTravelTime="39.68" duration="1" />
    <step time="106.00" loaded="480" emitted="97" running="75" waiting="5" ended="22" meanWaitingTime="2.26" meanTravelTime="39.68" duration="1" />
    <step time="107.00" loaded="480" emitted="99" running="76" waiting="4" ended="23" meanWaitingTime="2.25" meanTravelTime="39.48" duration="0" />
    <step time="108.00" loaded="480" emitted="100" running="77" waiting="4" ended="23" meanWaitingTime="2.23" meanTravelTime="39.48" duration="1" />
    <step time="109.00" loaded="480" emitted="101" running="77" waiting="4" ended="24" meanWaitingTime="2.21" meanTravelTime="41.38" duration="1" />
    <step time="110.00" loaded="480" emitted="102" running="78" waiting="4" ended="24" meanWaitingTime="2.19" meanTravelTime="41.38" duration="0" />
    <step time="111.00" loaded="480" emitted="103" running="79" waiting="4" ended="24" meanWaitingTime="2.17" meanTravelTime="41.38" duration="1" />
    <step time="112.00" loaded="480" emitted="104" running="80" waiting="4" ended="24" meanWaitingTime="2.31" meanTravelTime="41.38" duration="1" />
    <step time="113.00" loaded="480" emitted="105" running="80" waiting="4" ended="25" meanWaitingTime="2.30" meanTravelTime="42.96" duration="0" />
    <step time="114.00" loaded="480" emitted="106" running="81" waiting="4" ended="25" meanWaitingTime="2.27" meanTravelTime="42.96" duration="1" />
    <step time="115.00" loaded="480" emitted="106" running="80" waiting="5" ended="26" meanWaitingTime="2.27" meanTravelTime="42.15" duration="0" />
    <step time="116.00" loaded="480" emitted="107" running="81" waiting="5" ended="26" meanWaitingTime="2.25" meanTravelTime="42.15" duration="1" />
    <step time="117.00" loaded="480" emitted="107" running="81" waiting="6" ended="26" meanWaitingTime="2.25" meanTravelTime="42.15" duration="1" />
    <step time="118.00" loaded="480" emitted="108" running="81" waiting="6" ended="27" meanWaitingTime="2.26" meanTravelTime="43.37" duration="0" />
    <step time="119.00" loaded="480" emitted="108" running="81" waiting="6" ended="27" meanWaitingTime="2.26" meanTravelTime="43.37" duration="0" />
    <step time="120.00" loaded="480" emitted="109" running="81" waiting="6" ended="28" meanWaitingTime="2.24" meanTravelTime="42.75" duration="1" />
    <step time="121.00" loaded="480" emitted="110" running="82" waiting="6" ended="28" meanWaitingTime="2.57" meanTravelTime="42.75" duration="1" />
    <step time="122.00" loaded="480" emitted="111" running="83" waiting="6" ended="28" meanWaitingTime="2.55" meanTravelTime="42.75" duration="1" />
    <step time="123.00" loaded="480" emitted="112" running="84" waiting="6" ended="28" meanWaitingTime="2.53" meanTravelTime="42.75" duration="1" />
    <step time="124.00" loaded="480" emitted="113" running="85" waiting="6" ended="28" meanWaitingTime="2.50" meanTravelTime="42.75" duration="1" />
    <step time="125.00" loaded="480" emitted="114" running="86" waiting="6" ended="28" meanWaitingTime="2.48" meanTravelTime="42.75" duration="1" />
    <step time="126.00" loaded="480" emitted="115" running="87" waiting="6" ended="28" meanWaitingTime="2.46" meanTravelTime="42.75" duration="0" />
    <step time="127.00" loaded="480" emitted="116" running="87" waiting="6" ended="29" meanWaitingTime="2.44" meanTravelTime="41.97" duration="1" />
    <step time="128.00" loaded="480" emitted="119" running="90" waiting="4" ended="29" meanWaitingTime="2.93" meanTravelTime="41.97" duration="1" />
    <step time="129.00" loaded="480" emitted="119" running="90" waiting="4" ended="29" meanWaitingTime="2.93" meanTravelTime="41.97" duration="1" />
    <step time="130.00" loaded="480" emitted="119" running="90" waiting="5" ended="29" meanWaitingTime="2.93" meanTravelTime="41.97" duration="0" />
    <step time="131.00" loaded="480" emitted="119" running="90" waiting="6" ended="29" meanWaitingTime="2.93" meanTravelTime="41.97" duration="0" />
    <step time="132.00" loaded="480" emitted="120" running="91" waiting="6" ended="29" meanWaitingTime="2.91" meanTravelTime="41.97" duration="1" />
    <step time="133.00" loaded="480" emitted="121" running="92" waiting="6" ended="29" meanWaitingTime="2.88" meanTravelTime="41.97" duration="1" />
    <step time="134.00" loaded="480" emitted="122" running="92" waiting="6" ended="30" meanWaitingTime="2.86" meanTravelTime="44.03" duration="1" />
    <step time="135.00" loaded="480" emitted="123" running="92" waiting="6" ended="31" meanWaitingTime="2.84" meanTravelTime="44.87" duration="0" />
    <step time="136.00" loaded="480" emitted="124" running="93" waiting="6" ended="31" meanWaitingTime="2.81" meanTravelTime="44.87" duration="1" />
    <step time="137.00" loaded="480" emitted="124" running="92" waiting="7" ended="32" meanWaitingTime="2.81" meanTravelTime="45.84" duration="1" />
    <step time="138.00" loaded="480" emitted="125" running="91" waiting="7" ended="34" meanWaitingTime="2.79" meanTravelTime="47.35" duration="1" />
    <step time="139.00" loaded="480" emitted="125" running="91" waiting="8" ended="34" meanWaitingTime="2.79" meanTravelTime="47.35" duration="1" />
    <step time="140.00" loaded="480" emitted="126" running="91" waiting="8" ended="35" meanWaitingTime="2.77" meanTravelTime="48.83" duration="1" />
    <step time="141.00" loaded="480" emitted="127" running="90" waiting="8" ended="37" meanWaitingTime="2.75" meanTravelTime="50.32" duration="0" />
    <step time="142.00" loaded="480" emitted="128" running="90" waiting="8" ended="38" meanWaitingTime="2.73" meanTravelTime="49.24" duration="1" />
    <step time="143.00" loaded="480" emitted="129" running="89" waiting="8" ended="40" meanWaitingTime="2.71" meanTravelTime="50.60" duration="1" />
    <step time="144.00" loaded="480" emitted="130" running="89" waiting="8" ended="41" meanWaitingTime="2.68" meanTravelTime="50.90" duration="1" />
    <step time="145.00" loaded="480" emitted="131" running="90" waiting="8" ended="41" meanWaitingTime="2.66" meanTravelTime="50.90" duration="1" />
    <step time="146.00" loaded="480" emitted="132" running="90" waiting="8" ended="42" meanWaitingTime="2.64" meanTravelTime="49.98" duration="0" />
    <step time="147.00" loaded="480" emitted="133" running="91" waiting="8" ended="42" meanWaitingTime="2.62" meanTravelTime="49.98" duration="1" />
    <step time="148.00" loaded="480" emitted="134" running="91" waiting="8" ended="43" meanWaitingTime="2.60" meanTravelTime="50.02" duration="1" />
    <step time="149.00" loaded="480" emitted="135" running="92" waiting="8" ended="43" meanWaitingTime="2.59" meanTravelTime="50.02" duration="0" />
    <step time="150.00" loaded="480" emitted="136" running="93" waiting="8" ended="43" meanWaitingTime="2.57" meanTravelTime="50.02" duration="1" />
    <step time="151.00" loaded="480" emitted="139" running="96" waiting="6" ended="43" meanWaitingTime="2.99" meanTravelTime="50.02" duration="1" />
    <step time="152.00" loaded="480" emitted="139" running="96" waiting="7" ended="43" meanWaitingTime="2.99" meanTravelTime="50.02" duration="1" />
    <step time="153.00" loaded="480" emitted="140" running="96" waiting="7" ended="44" meanWaitingTime="2.97" meanTravelTime="50.93" duration="1" />
    <step time="154.00" loaded="480" emitted="140" running="96" waiting="8" ended="44" meanWaitingTime="2.97" meanTravelTime="50.93" duration="0" />
    <step time="155.00" loaded="480" emitted="140" running="95" waiting="9" ended="45" meanWaitingTime="2.97" meanTravelTime="51.82" duration="1" />
    <step time="156.00" loaded="480" emitted="141" running="96" waiting="9" ended="45" meanWaitingTime="2.95" meanTravelTime="51.82" duration="1" />
    <step time="157.00" loaded="480" emitted="142" running="97" waiting="9" ended="45" meanWaitingTime="2.93" meanTravelTime="51.82" duration="1" />
    <step time="158.00" loaded="480" emitted="143" running="97" waiting="9" ended="46" meanWaitingTime="2.91" meanTravelTime="51.35" duration="1" />
    <step time="159.00" loaded="480" emitted="144" running="97" waiting="9" ended="47" meanWaitingTime="2.89" meanTravelTime="51.04" duration="0" />
    <step time="160.00" loaded="480" emitted="146" running="99" waiting="8" ended="47" meanWaitingTime="2.89" meanTravelTime="51.04" duration="1" />
    <step time="161.00" loaded="480" emitted="148" running="101" waiting="7" ended="47" meanWaitingTime="3.01" meanTravelTime="51.04" duration="1" />
    <step time="162.00" loaded="480" emitted="149" running="101" waiting="7" ended="48" meanWaitingTime="2.99" meanTravelTime="52.71" duration="1" />
    <step time="163.00" loaded="480" emitted="152" running="104" waiting="5" ended="48" meanWaitingTime="3.47" meanTravelTime="52.71" duration="1" />
    <step time="164.00" loaded="480" emitted="153" running="104" waiting="5" ended="49" meanWaitingTime="3.45" meanTravelTime="52.29" duration="1" />
    <step time="165.00" loaded="480" emitted="153" running="103" waiting="6" ended="50" meanWaitingTime="3.45" meanTravelTime="53.66" duration="1" />
    <step time="166.00" loaded="480" emitted="155" running="104" waiting="5" ended="51" meanWaitingTime="3.58" meanTravelTime="54.53" duration="1" />
    <step time="167.00" loaded="480" emitted="157" running="105" waiting="4" ended="52" meanWaitingTime="3.55" meanTravelTime="55.35" duration="1" />
    <step time="168.00" loaded="480" emitted="158" running="105" waiting="4" ended="53" meanWaitingTime="3.53" meanTravelTime="55.28" duration="1" />
    <step time="169.00" loaded="480" emitted="159" running="106" waiting="4" ended="53" meanWaitingTime="3.50" meanTravelTime="55.28" duration="0" />
    <step time="170.00" loaded="480" emitted="160" running="106" waiting="4" ended="54" meanWaitingTime="3.48" meanTravelTime="55.98" duration="0" />
    <step time="171.00" loaded="480" emitted="161" running="104" waiting="4" ended="57" meanWaitingTime="3.46" meanTravelTime="60.91" duration="2" />
    <step time="172.00" loaded="480" emitted="161" running="102" waiting="4" ended="59" meanWaitingTime="3.46" meanTravelTime="61.54" duration="1" />
    <step time="173.00" loaded="480" emitted="162" running="100" waiting="4" ended="62" meanWaitingTime="3.44" meanTravelTime="64.19" duration="1" />
    <step time="174.00" loaded="480" emitted="162" running="98" waiting="5" ended="64" meanWaitingTime="3.44" meanTravelTime="64.67" duration="1" />
    <step time="175.00" loaded="480" emitted="163" running="96" waiting="5" ended="67" meanWaitingTime="3.42" meanTravelTime="65.81" duration="1" />
    <step time="176.00" loaded="480" emitted="164" running="96" waiting="5" ended="68" meanWaitingTime="3.40" meanTravelTime="66.35" duration="1" />
    <step time="177.00" loaded="480" emitted="164" running="96" waiting="6" ended="68" meanWaitingTime="3.40" meanTravelTime="66.35" duration="1" />
    <step time="178.00" loaded="480" emitted="165" running="96" waiting="6" ended="69" meanWaitingTime="3.38" meanTravelTime="67.94" duration="0" />
    <step time="179.00" loaded="480" emitted="166" running="96" waiting="6" ended="70" meanWaitingTime="3.36" meanTravelTime="68.40" duration="1" />
    <step time="180.00" loaded="480" emitted="167" running="96" waiting="6" ended="71" meanWaitingTime="3.34" meanTravelTime="68.83" duration="1" />
    <step time="181.00" loaded="480" emitted="169" running="95" waiting="5" ended="74" meanWaitingTime="3.60" meanTravelTime="68.30" duration="1" />
    <step time="182.00" loaded="480" emitted="170" running="95" waiting="5" ended="75" meanWaitingTime="3.61" meanTravelTime="68.49" duration="1" />
    <step time="183.00" loaded="480" emitted="171" running="96" waiting="5" ended="75" meanWaitingTime="3.58" meanTravelTime="68.49" duration="1" />
    <step time="184.00" loaded="480" emitted="172" running="97" waiting="5" ended="75" meanWaitingTime="3.56" meanTravelTime="68.49" duration="0" />
    <step time="185.00" loaded="480" emitted="173" running="98" waiting="5" ended="75" meanWaitingTime="3.54" meanTravelTime="68.49" duration="1" />
    <step time="186.00" loaded="480" emitted="174" running="98" waiting="5" ended="76" meanWaitingTime="3.52" meanTravelTime="70.03" duration="1" />
    <step time="187.00" loaded="480" emitted="175" running="99" waiting="5" ended="76" meanWaitingTime="3.50" meanTravelTime="70.03" duration="1" />
    <step time="188.00" loaded="480" emitted="176" running="100" waiting="5" ended="76" meanWaitingTime="3.48" meanTravelTime="70.03" duration="0" />
    <step time="189.00" loaded="480" emitted="177" running="101" waiting="5" ended="76" meanWaitingTime="3.46" meanTravelTime="70.03" duration="1" />
    <step time="190.00" loaded="480" emitted="177" running="101" waiting="5" ended="76" meanWaitingTime="3.46" meanTravelTime="70.03" duration="1" />
    <step time="191.00" loaded="480" emitted="177" running="100" waiting="5" ended="77" meanWaitingTime="3.46" meanTravelTime="69.48" duration="0" />
    <step time="192.00" loaded="480" emitted="178" running="101" waiting="5" ended="77" meanWaitingTime="3.44" meanTravelTime="69.48" duration="0" />
    <step time="193.00" loaded="480" emitted="178" running="100" waiting="6" ended="78" meanWaitingTime="3.44" meanTravelTime="70.49" duration="1" />
    <step time="194.00" loaded="480" emitted="179" running="100" waiting="6" ended="79" meanWaitingTime="3.42" meanTravelTime="71.16" duration="1" />